 # Voronoi polycrystal with 1 grains
 
        3394  atoms
           2  atom types
 
      -20.00000000      20.94727115  xlo xhi
      -20.00000000      20.98830922  ylo yhi
      -5.6000000      90.80037955  zlo zhi
 
Masses
 
           1   15.99900000    # O 
           2   65.38000000    # Zn
 
Atoms # charge
 
         1    1  -2.0     -4.05000000      -3.27357602      -4.93336733
         2    1  -2.0     -0.81000000      -3.27357602      -4.93336733
         3    1  -2.0      2.43000000      -3.27357602      -4.93336733
         4    1  -2.0     -2.43000000      -0.46765371      -4.93336733
         5    1  -2.0      0.81000000      -0.46765371      -4.93336733
         6    1  -2.0      4.05000000      -0.46765371      -4.93336733
         7    1  -2.0     -4.05000000       2.33826860      -4.93336733
         8    1  -2.0     -0.81000000       2.33826860      -4.93336733
         9    1  -2.0      2.43000000       2.33826860      -4.93336733
        10    2   2.0     -4.05000000      -3.27357602      -1.68336733
        11    1  -2.0     -4.05000000      -3.27357602       0.26663267
        12    2   2.0     -2.43000000      -2.33826859      -4.28336733
        13    2   2.0     -0.81000000      -3.27357602      -1.68336733
        14    1  -2.0     -2.43000000      -2.33826859      -2.33336733
        15    1  -2.0     -0.81000000      -3.27357602       0.26663267
        16    2   2.0      0.81000000      -2.33826859      -4.28336733
        17    2   2.0      2.43000000      -3.27357602      -1.68336733
        18    1  -2.0      0.81000000      -2.33826859      -2.33336733
        19    1  -2.0      2.43000000      -3.27357602       0.26663267
        20    2   2.0      4.05000000      -2.33826859      -4.28336733
        21    1  -2.0      4.05000000      -2.33826859      -2.33336733
        22    2   2.0     -4.05000000       0.46765372      -4.28336733
        23    2   2.0     -2.43000000      -0.46765371      -1.68336733
        24    1  -2.0     -4.05000000       0.46765372      -2.33336733
        25    1  -2.0     -2.43000000      -0.46765371       0.26663267
        26    2   2.0     -0.81000000       0.46765372      -4.28336733
        27    2   2.0      0.81000000      -0.46765371      -1.68336733
        28    1  -2.0     -0.81000000       0.46765372      -2.33336733
        29    1  -2.0      0.81000000      -0.46765371       0.26663267
        30    2   2.0      2.43000000       0.46765372      -4.28336733
        31    2   2.0      4.05000000      -0.46765371      -1.68336733
        32    1  -2.0      2.43000000       0.46765372      -2.33336733
        33    1  -2.0      4.05000000      -0.46765371       0.26663267
        34    2   2.0     -4.05000000       2.33826860      -1.68336733
        35    1  -2.0     -4.05000000       2.33826860       0.26663267
        36    2   2.0     -2.43000000       3.27357603      -4.28336733
        37    2   2.0     -0.81000000       2.33826860      -1.68336733
        38    1  -2.0     -2.43000000       3.27357603      -2.33336733
        39    1  -2.0     -0.81000000       2.33826860       0.26663267
        40    2   2.0      0.81000000       3.27357603      -4.28336733
        41    2   2.0      2.43000000       2.33826860      -1.68336733
        42    1  -2.0      0.81000000       3.27357603      -2.33336733
        43    1  -2.0      2.43000000       2.33826860       0.26663267
        44    2   2.0      4.05000000       3.27357603      -4.28336733
        45    1  -2.0      4.05000000       3.27357603      -2.33336733
        46    2   2.0     -4.05000000      -3.27357602       3.51663267
        47    2   2.0     -2.43000000      -2.33826859       0.91663267
        48    2   2.0     -0.81000000      -3.27357602       3.51663267
        49    1  -2.0     -2.43000000      -2.33826859       2.86663267
        50    2   2.0      0.81000000      -2.33826859       0.91663267
        51    2   2.0      2.43000000      -3.27357602       3.51663267
        52    1  -2.0      0.81000000      -2.33826859       2.86663267
        53    2   2.0      4.05000000      -2.33826859       0.91663267
        54    1  -2.0      4.05000000      -2.33826859       2.86663267
        55    2   2.0     -4.05000000       0.46765372       0.91663267
        56    2   2.0     -2.43000000      -0.46765371       3.51663267
        57    1  -2.0     -4.05000000       0.46765372       2.86663267
        58    2   2.0     -0.81000000       0.46765372       0.91663267
        59    2   2.0      0.81000000      -0.46765371       3.51663267
        60    1  -2.0     -0.81000000       0.46765372       2.86663267
        61    2   2.0      2.43000000       0.46765372       0.91663267
        62    2   2.0      4.05000000      -0.46765371       3.51663267
        63    1  -2.0      2.43000000       0.46765372       2.86663267
        64    2   2.0     -4.05000000       2.33826860       3.51663267
        65    2   2.0     -2.43000000       3.27357603       0.91663267
        66    2   2.0     -0.81000000       2.33826860       3.51663267
        67    1  -2.0     -2.43000000       3.27357603       2.86663267
        68    2   2.0      0.81000000       3.27357603       0.91663267
        69    2   2.0      2.43000000       2.33826860       3.51663267
        70    1  -2.0      0.81000000       3.27357603       2.86663267
        71    2   2.0      4.05000000       3.27357603       0.91663267
        72    1  -2.0      4.05000000       3.27357603       2.86663267
        73    2   2.0     16.14833214       8.17779605       7.04871025
        74    2   2.0     16.96012526     -12.87306652      39.99774981
        75    2   2.0    -12.48980562     -13.89841848      31.39440357
        76    2   2.0     10.35909778       1.61757885      89.80449784
        77    2   2.0     10.47169271     -13.98125929      48.84780180
        78    2   2.0     -8.77834319     -14.81704502       7.21432866
        79    2   2.0     -2.10735817      -1.38333844      53.36229652
        80    2   2.0      0.27915489      -4.35411242      67.06391993
        81    2   2.0     18.70397501      15.75006992      58.90348585
        82    2   2.0      5.49111774       5.42008718       6.29807681
        83    2   2.0    -12.60385125      -9.81619385      39.67382091
        84    2   2.0     16.69682339      -8.74621653      57.34475225
        85    2   2.0     -7.92913388      -1.51719923      72.82350300
        86    2   2.0    -15.77088670       4.44091831      59.43861467
        87    2   2.0     12.62765608      -2.17054925      76.35255125
        88    2   2.0     10.02894424      -0.79125136      86.70866017
        89    2   2.0     -2.22799235      -0.23366746      74.22460294
        90    2   2.0     13.34974129     -13.68030187      70.13082804
        91    2   2.0     -2.30804251      -9.66983849      54.69783232
        92    2   2.0      1.85288876      18.09641311       7.54772475
        93    2   2.0     -0.51658041       2.61108389      68.64997284
        94    2   2.0    -19.05480192      17.18724745      85.25068420
        95    2   2.0    -13.37311194     -11.39053292      28.18867930
        96    2   2.0    -18.58889488      -6.52073586      75.22177676
        97    2   2.0     -7.57715569      -1.86819126      10.91706287
        98    2   2.0     -0.35104964     -16.96973356      41.85507756
        99    2   2.0      4.37307537      -9.81063059      63.49092409
       100    2   2.0     15.27577321      -5.25378428      62.48828841
       101    2   2.0    -11.87140784      -5.25376480      60.08292159
       102    2   2.0    -17.74668479      11.61343954      74.30223399
       103    2   2.0     -9.70518040       7.83998368      57.44461757
       104    2   2.0     -5.60553115       7.90487257      30.61215334
       105    2   2.0     -1.81029917      15.28987744      59.46654380
       106    2   2.0     -7.52649836       3.96832625      24.78813962
       107    2   2.0     11.72728820      -1.21372835      42.06845118
       108    2   2.0    -16.16098982      16.66915590       8.97557360
       109    2   2.0    -12.19368755      -3.88253916      54.99720146
       110    2   2.0     15.12271925     -10.36270093      14.87869206
       111    2   2.0     12.65819422       8.44170779      63.41245438
       112    2   2.0     18.46436213       4.94705954      43.62437373
       113    2   2.0     11.57308568     -18.98964347      57.88839572
       114    2   2.0      3.67665493      -3.52562554      61.90362135
       115    2   2.0     19.02433456     -10.02269542      15.96136473
       116    2   2.0      6.32161175      11.29827901      83.55176306
       117    2   2.0    -12.75655733     -19.01050833      62.91087337
       118    2   2.0     -6.72969074      -7.63683719      11.23141501
       119    2   2.0      9.45076528      -6.33158029      53.95587237
       120    2   2.0    -18.99439994      -2.63641135      56.13994631
       121    2   2.0     -3.73593893      -8.46651968      19.35648430
       122    2   2.0      9.08738409      -7.81600311      73.51866254
       123    2   2.0     18.03257108       6.29534960      10.05365859
       124    2   2.0     -3.35955778      10.77942573      39.10461758
       125    2   2.0     -5.09094218       9.31204305      33.19799526
       126    2   2.0      7.85890040       8.62397598      83.06364958
       127    2   2.0     16.94008778     -10.62092820      51.97085702
       128    2   2.0     -7.51318888     -10.39387042      69.19231167
       129    2   2.0     -2.07187997      -7.21753459      50.58644374
       130    2   2.0    -17.83708912      19.52505258      27.73465344
       131    2   2.0      7.28458274      -2.59240119      72.24928406
       132    2   2.0     -0.84477175      13.43621080      84.28313134
       133    2   2.0     -1.22992369      -7.55961448      60.32413088
       134    2   2.0     19.61256014      -3.00633745      25.35481376
       135    2   2.0    -19.73158661     -11.17304058       7.01534529
       136    2   2.0      9.20533487      -9.98162791      33.79896341
       137    2   2.0    -16.74323835       5.35083834      37.02408414
       138    2   2.0     11.38121002       1.29580436      39.01374833
       139    2   2.0     -3.73877926     -16.11948324      68.68992832
       140    2   2.0     -2.68334617      -6.98821573      55.48212483
       141    2   2.0     -0.51446577       8.37000877      20.39142437
       142    2   2.0     -0.18670273       6.98463010      69.50878878
       143    2   2.0     17.07569281       7.03894265      26.85043699
       144    2   2.0      4.41450904      12.69969149      70.94207179
       145    2   2.0      8.50838754     -16.51618436      63.95501687
       146    2   2.0    -13.15014176      -9.03183449      72.55334999
       147    2   2.0    -16.17106435       7.52009906      77.95636344
       148    2   2.0     17.44004837       8.36035912      61.51252050
       149    2   2.0     18.53186801     -15.14770219      35.36659392
       150    2   2.0     13.09133541      -5.48749779      65.64938902
       151    2   2.0    -11.90805235      12.84236804      40.98448448
       152    2   2.0      6.74746994      -6.20013601      31.89356636
       153    2   2.0     13.82291479       6.29244332      29.38344508
       154    2   2.0      7.54197776       6.01387379      85.88688504
       155    2   2.0     -7.33296266     -16.08119345      22.95795638
       156    2   2.0      2.48840498      -7.70861048      39.89805348
       157    2   2.0      8.50099091       1.66688039      36.33806369
       158    2   2.0     -6.65323863     -17.22486257      69.14488699
       159    2   2.0     17.97335001      -7.29201452      62.16581261
       160    2   2.0     13.06205624      19.63850993      49.87129763
       161    2   2.0      5.68086859       0.41663173      64.84326912
       162    2   2.0    -14.19743226     -19.48663202      77.93340716
       163    2   2.0    -10.83120659       6.47362518      61.38693933
       164    2   2.0     18.37903424      14.38766888      37.54136795
       165    2   2.0     -2.03642580      14.47952955      18.55782729
       166    2   2.0      5.63234772      -2.72847387      84.00493371
       167    2   2.0      2.07356554      -2.21463759       8.99254215
       168    2   2.0      3.88234503       1.42042910      24.88878741
       169    2   2.0      7.59263628      11.57949120      54.33325053
       170    2   2.0      2.99523162      15.84486026      33.88778549
       171    2   2.0     -1.20024477     -14.38663685      11.19301723
       172    2   2.0     12.77575250      -3.22079651       7.11200433
       173    2   2.0     -3.63135050      -6.29035820      48.37945366
       174    2   2.0    -18.99659550      -8.73165481      12.41150372
       175    2   2.0    -18.44959849      16.53680216      82.78127239
       176    2   2.0    -10.62838374      18.66972005      18.74659856
       177    2   2.0     11.27184284       0.19964447      82.87588357
       178    2   2.0    -13.68337900      13.32144892       9.66947874
       179    2   2.0     -6.01136193      -4.60563220      43.38978008
       180    2   2.0      9.69093399      -8.30909395      18.39442651
       181    2   2.0     -8.86779055       4.99108964      51.37706335
       182    2   2.0     11.07321703       8.69068942      75.61656546
       183    2   2.0     -9.87764297       9.31826064      39.33219560
       184    2   2.0      1.33173769      13.62034559      68.37381595
       185    2   2.0      4.08863189     -16.87022471      65.40284844
       186    2   2.0     -3.15656082     -11.30702505      82.55536496
       187    2   2.0      1.32166806      -8.04119109      12.58630436
       188    2   2.0     -0.83825726     -12.92038191      72.26417024
       189    2   2.0     16.75433324      19.57393823      86.28518993
       190    2   2.0     -0.80421594       0.09088000      69.88182595
       191    2   2.0    -14.96440125      11.61650468      79.01694687
       192    2   2.0    -14.40108945       6.70726694      30.58914224
       193    2   2.0     14.77709997      17.83674814      55.93199746
       194    2   2.0     -7.13143606      -4.53835052       7.28252764
       195    2   2.0     -5.48632826      -9.63872667      24.00500367
       196    2   2.0     -5.26976722       8.64008987      23.58925549
       197    2   2.0     -0.20364873       3.69615899      80.51147877
       198    2   2.0     10.18871636       3.89375651      56.63157852
       199    2   2.0      9.26700153      -4.61404075      89.19848608
       200    2   2.0     14.48924710      17.78764935      13.01615767
       201    2   2.0     18.54947701     -17.53795781      48.29683840
       202    2   2.0    -11.26049755      12.88086990      27.63987967
       203    2   2.0     15.64866782      -3.97557947      56.14509478
       204    2   2.0      4.83779739      16.81945393      83.63763806
       205    2   2.0     -6.11284723     -19.22087230      44.10811102
       206    2   2.0    -13.13168637      -9.75060352      80.10856977
       207    2   2.0      9.55885859      13.58118210      58.51106070
       208    2   2.0    -18.62950862     -14.08687051      52.48386128
       209    2   2.0     -8.14609281      -1.41887949       7.20145676
       210    2   2.0    -18.73702019     -19.29701173      87.87985618
       211    2   2.0      1.84936676     -14.53348378      65.76908039
       212    2   2.0      7.41781882       5.07706621      15.78429802
       213    2   2.0     -8.63625870       3.15791059      66.07430171
       214    2   2.0     14.73906658     -12.63731438       6.01109234
       215    2   2.0      0.83868713       3.40604811      84.57185894
       216    2   2.0     13.13576922     -13.72326863      52.04080688
       217    2   2.0     -9.61001883       3.05790065      30.33769169
       218    2   2.0     19.92060455     -17.15366273      37.87791169
       219    2   2.0     -1.19502104       0.95982999       7.66280319
       220    2   2.0     -9.44310456     -18.50928366      39.08466580
       221    2   2.0      2.08568912      -8.08952585      50.11101112
       222    2   2.0     14.29114370       2.91271524      47.02856427
       223    2   2.0      0.18159891     -12.72613775      83.61034183
       224    2   2.0     10.51312240     -17.11879632       6.80990386
       225    2   2.0     12.94316854     -14.70754837       8.98231427
       226    2   2.0      6.09257097     -17.99165366      51.18034963
       227    2   2.0     18.81977409      19.15290691      43.55640006
       228    2   2.0     -4.52024812       4.97199649      52.69058422
       229    2   2.0     12.98485068       5.78207872      56.30722999
       230    2   2.0    -16.34320168      -7.28213062      87.60684717
       231    2   2.0     -9.84458939      19.62798564      73.96078737
       232    2   2.0    -13.57196072      -2.68219394      19.62222966
       233    2   2.0     15.07267449       8.06664862      49.66365040
       234    2   2.0    -16.53292489      15.15102343      50.10979080
       235    2   2.0     11.82197964      -7.59037336      47.41011608
       236    2   2.0      7.02048171      -4.32515737      56.32573762
       237    2   2.0      7.90065113      18.35951253      18.80595436
       238    2   2.0     -2.29472061      -8.26895394      16.90160597
       239    2   2.0    -11.99149339      -4.98022035      11.67608127
       240    2   2.0     15.36467460      -2.91676069      59.40466127
       241    2   2.0     -7.78228620     -17.07649234      78.04255743
       242    2   2.0     14.93156728     -11.28235653      47.80610907
       243    2   2.0     -5.40953647       7.79004907      67.54037009
       244    2   2.0     -9.54454429       6.38183682      14.30241722
       245    2   2.0      5.95516266       6.26839737      72.62133851
       246    2   2.0     -7.14286984     -17.68299067      30.16028483
       247    2   2.0    -18.86219192      -4.35306068      68.01515558
       248    2   2.0     17.05425115     -16.53481149       8.04621896
       249    2   2.0    -10.18808902      16.96696212      66.81576967
       250    2   2.0      7.40408063      -9.96248465      79.35303614
       251    2   2.0     14.69052611      -2.48128803      81.38819082
       252    2   2.0    -17.10758305      19.48651572      14.47755977
       253    2   2.0     -3.73718323      15.16901239      35.07354959
       254    2   2.0      3.13909714       3.91630808      87.36052198
       255    2   2.0     18.56933801     -13.52228972      81.10862025
       256    2   2.0     10.80568745     -18.55285572      18.56387345
       257    2   2.0      3.64159564     -15.28762558      35.28988146
       258    2   2.0     -0.73489213       8.39729338      82.09705133
       259    2   2.0      1.31411668      -2.97526766      46.99758241
       260    2   2.0     -3.53712601     -16.12338627      12.43183019
       261    2   2.0     -6.09903748       5.22896770      11.88008873
       262    2   2.0     -9.42928832     -19.55852942      62.33389596
       263    2   2.0    -16.17624666     -16.55770583       8.20679346
       264    2   2.0    -15.37718381     -16.61404122      79.64580672
       265    2   2.0     17.52270610      15.44102038      26.72741225
       266    2   2.0      6.32294562      -0.79807477      61.02328861
       267    2   2.0    -14.96746416      17.85272080      80.45982746
       268    2   2.0     -9.90874486     -13.02928261      33.32536031
       269    2   2.0     -0.20820370      -4.69612819      29.88192396
       270    2   2.0     -4.36220571     -11.44396325      49.57334655
       271    2   2.0     10.47330248      16.93033985      17.09509026
       272    2   2.0    -17.23991718       8.57137678      23.48854516
       273    2   2.0      9.58839941       9.33520207      63.95147017
       274    2   2.0    -13.06260017      -5.09387224      35.52309479
       275    2   2.0    -10.42590259      11.31578103      17.08824803
       276    2   2.0    -14.12093949      -7.07067455      40.86423970
       277    2   2.0    -19.37058603       7.25527772      52.81489753
       278    2   2.0    -16.32055846      -9.58773912      65.04308854
       279    2   2.0      8.55824800      10.80839858      43.82488882
       280    2   2.0      6.56953001      -2.72805155      44.18939036
       281    2   2.0     -1.47002164      10.71401084      65.39785751
       282    2   2.0     -5.23215229       3.67518777      40.03664128
       283    2   2.0    -10.65564128       5.87556209      37.25182279
       284    2   2.0      2.58702179     -18.63730365      47.17269378
       285    2   2.0    -12.54213957       8.14431827      59.71754586
       286    2   2.0    -19.81083893      18.12998103      38.16375959
       287    2   2.0     19.43006960      13.58228012      21.37381495
       288    2   2.0    -10.80437250      -9.96336084      15.69882768
       289    2   2.0      0.27913939      16.66719109      45.49608353
       290    2   2.0     -9.18330767      10.31643812      52.64906405
       291    2   2.0     12.97508818     -15.15831162      54.82868903
       292    2   2.0    -11.95903179     -15.46445339      27.45059638
       293    2   2.0    -13.67514717      -2.20219003      37.43344334
       294    2   2.0     -1.56052073      -6.47412529      84.43450774
       295    2   2.0      6.17007540      16.64612840      31.09144824
       296    2   2.0     17.75294813       5.53798062      19.16202132
       297    2   2.0     16.09260482     -16.64821392      71.56053817
       298    2   2.0    -12.78964925     -11.26101249       6.57204382
       299    2   2.0     -3.48012777     -11.22081062      45.28380078
       300    2   2.0     -7.76686344      -9.32789185      60.49035889
       301    2   2.0     -8.67942532      -2.82930127      80.97241287
       302    2   2.0      8.55728713      -3.21567741      22.88986147
       303    2   2.0    -17.17621437      -0.48559708      54.00710473
       304    2   2.0     11.52089849      -0.98988012       6.23174788
       305    2   2.0    -15.39478611      -4.75638244      79.31574242
       306    2   2.0    -19.67182275      16.63056842      69.64274408
       307    2   2.0      0.96493418       0.71709660      79.68560081
       308    2   2.0    -13.16795664       8.20920173      74.79031225
       309    2   2.0      0.27230855      -3.79936949      51.63372771
       310    2   2.0      3.85469679      19.49079441       8.44846814
       311    2   2.0    -14.11367093      19.52118967      17.09105408
       312    2   2.0      4.30724940      15.11591230      14.71097846
       313    2   2.0     -9.07872901      14.86100742      30.62778882
       314    2   2.0     -8.61898606     -18.56907190      44.92367530
       315    2   2.0     11.12234787      14.99395266      82.54905797
       316    2   2.0     12.51029461      -0.21381885      51.47453961
       317    2   2.0     14.05500296       6.33252595      42.28530733
       318    2   2.0      7.98914661      -4.73227021      69.08325943
       319    2   2.0    -17.23515826      15.44572459      68.38050251
       320    2   2.0      3.83428163      -2.38492772      18.57259807
       321    2   2.0     -0.36752694       0.02330197      63.26115655
       322    2   2.0     15.89998866       4.93685142      61.72110326
       323    2   2.0    -14.56562670     -12.94496008      57.01177569
       324    2   2.0     -7.78869639     -12.96004452      13.94075325
       325    2   2.0    -15.05283802       0.64670183      57.12322888
       326    2   2.0      4.67523996      14.75439515      60.29219565
       327    2   2.0     19.57135505     -10.45043718       6.93433698
       328    2   2.0     -4.65423862      16.41228258      68.47853200
       329    2   2.0     18.64690711       6.65516702      36.63474350
       330    2   2.0      2.68690100       4.88568455      39.13958239
       331    2   2.0      8.89654743       1.39177517      21.77419015
       332    2   2.0      3.00678970       7.95694372      44.10542656
       333    2   2.0      3.72866766      -3.98851140      38.50545600
       334    2   2.0     -7.34090679       9.53225891      87.86994514
       335    2   2.0     12.25649965       5.34581355      38.77895709
       336    2   2.0     13.73363164      -5.20606501      83.23682658
       337    2   2.0     -6.81292948     -13.60826380      63.51125810
       338    2   2.0      9.34319083      17.28306024      28.88449085
       339    2   2.0     13.03262437      16.76621153      58.34932705
       340    2   2.0     17.31165069      14.06732896      82.86463581
       341    2   2.0    -11.83064879     -15.59221793      50.46655675
       342    2   2.0    -15.98460375       3.57678468      78.58242634
       343    2   2.0      9.89765695     -13.73534579      62.44173937
       344    2   2.0     11.76268866     -11.52998600      55.45192463
       345    2   2.0     -3.35967976      15.24215812      82.28646673
       346    2   2.0     12.81403800      -8.94568597      18.97725235
       347    2   2.0    -11.93687914      14.80557388      47.45414198
       348    2   2.0     -6.26777915      18.95797132      61.89596127
       349    2   2.0     10.80870953       3.87271210      51.01285886
       350    2   2.0     -5.77093455     -13.44606305      45.70744585
       351    2   2.0    -10.60701940      -2.61276534      72.03041607
       352    2   2.0      7.55031606       5.52887818      37.89152355
       353    2   2.0      3.50021473      -1.86081573      56.35303175
       354    2   2.0     16.61301760       0.49685306      27.95259582
       355    2   2.0     -2.35730015     -14.63448651      30.56069253
       356    2   2.0    -14.74357694     -11.06566155      12.75616545
       357    2   2.0      0.25793486       0.08313513      76.06114013
       358    2   2.0     -2.70342468     -19.56199911      10.51849411
       359    2   2.0    -12.02161779       2.74702900       8.87416532
       360    2   2.0     10.62455449      18.77402115      76.17811222
       361    2   2.0      4.96704318     -15.29867529      81.54535238
       362    2   2.0     -2.30357026     -14.90748720      51.08753891
       363    2   2.0      1.08776852       2.95894386      45.84364146
       364    2   2.0    -14.46414627       2.53290670      36.36397662
       365    2   2.0     17.92571270      -2.63317257      62.01011074
       366    2   2.0      5.49745604      15.62853373      18.52413890
       367    2   2.0    -11.02337513       8.60410151      33.74710987
       368    2   2.0    -14.04056534     -17.48959010      18.84095020
       369    2   2.0      4.23469955      18.12640528      48.54963568
       370    2   2.0      6.91114864     -15.98671748      46.05558927
       371    2   2.0     17.06882501       7.49527949      87.35277225
       372    2   2.0    -10.85779377       1.36991144      11.82006478
       373    2   2.0    -12.94752963      13.13311217      59.98225501
       374    2   2.0     -3.72901024      10.51718429      49.27230720
       375    2   2.0      8.75031681     -15.02916676      73.83385455
       376    2   2.0     17.71319728      18.36349936      78.97929291
       377    2   2.0      2.18139056     -15.57110759      32.61468420
       378    2   2.0    -15.95270991       5.89803461      66.69252072
       379    2   2.0    -15.91398211     -13.24194541      89.48796382
       380    2   2.0     -7.71892030      14.36782847      74.49108306
       381    2   2.0     -2.92129196       1.94564569      50.59469108
       382    2   2.0     -0.53597640      10.11017661      62.61997797
       383    2   2.0    -10.54923448      18.76864880      77.69934663
       384    2   2.0      6.47417414      -2.07354797      10.32998008
       385    2   2.0     15.56045521     -15.93195973      74.31171324
       386    2   2.0     -8.11827433      -5.47643266      73.80961266
       387    2   2.0    -17.20654774      13.95286171      70.76978338
       388    2   2.0     -1.58012740      -6.53892457      25.24512836
       389    2   2.0      3.41496138       4.47132463      62.36362777
       390    2   2.0     10.31430980       6.73002055      16.74994214
       391    2   2.0      1.25992215     -12.05878282      16.90511684
       392    2   2.0     10.58652206      13.54347772      49.50658646
       393    2   2.0     -0.45069085     -17.65728225      15.12908101
       394    2   2.0      5.49253325       0.01046608      82.63115030
       395    2   2.0    -11.59374562       2.82782057      26.98661362
       396    2   2.0     -7.86928232      -8.77136225      53.29810051
       397    2   2.0     18.19298814       4.68981952      53.42212501
       398    2   2.0    -11.47938806      -7.95147588      51.54023215
       399    2   2.0    -15.95964769      -1.85249587      29.86686931
       400    2   2.0      6.54461292      -0.51883463      22.53425533
       401    2   2.0     -9.06614980     -16.58449254      10.86320056
       402    2   2.0     -4.84773897      -7.24200436      70.55658326
       403    2   2.0     18.03948086      -6.46677365      52.80540604
       404    2   2.0    -16.39257958      -6.70853497      58.33967101
       405    2   2.0    -19.14572021     -12.47060264      38.91513046
       406    2   2.0     17.17266465      -7.63915970      76.45839088
       407    2   2.0      7.83159682      12.73664964      12.44044766
       408    2   2.0    -12.71375097      12.86805171      76.44093584
       409    2   2.0      1.05065598      19.61991643      67.33395706
       410    2   2.0    -18.74812119      10.52602482      80.52877077
       411    2   2.0    -10.09983751     -13.74603229      43.56291505
       412    2   2.0     -5.18981717      12.20162047      16.26241244