 # Voronoi polycrystal with 1 grains
 
         272  atoms
           2  atom types
 
      -6.00000000      6.95199081  xlo xhi
      -6.00000000      6.98187776  ylo yhi
      -6.00000000      92.87056605  zlo zhi
 
Masses
 
           1   15.99900000    # O 
           2   65.38000000    # Zn
 
Atoms # charge
 
         1    1     -2.0  -4.05000000      -3.27357602      -4.93336733
         2    1     -2.0  -0.81000000      -3.27357602      -4.93336733
         3    1     -2.0   2.43000000      -3.27357602      -4.93336733
         4    1     -2.0  -2.43000000      -0.46765371      -4.93336733
         5    1     -2.0   0.81000000      -0.46765371      -4.93336733
         6    1     -2.0   4.05000000      -0.46765371      -4.93336733
         7    1     -2.0  -4.05000000       2.33826860      -4.93336733
         8    1     -2.0  -0.81000000       2.33826860      -4.93336733
         9    1     -2.0   2.43000000       2.33826860      -4.93336733
        10    2     2.0  -4.05000000      -3.27357602      -1.68336733
        11    1     -2.0  -4.05000000      -3.27357602       0.26663267
        12    2     2.0  -2.43000000      -2.33826859      -4.28336733
        13    2     2.0  -0.81000000      -3.27357602      -1.68336733
        14    1     -2.0  -2.43000000      -2.33826859      -2.33336733
        15    1     -2.0  -0.81000000      -3.27357602       0.26663267
        16    2     2.0   0.81000000      -2.33826859      -4.28336733
        17    2     2.0   2.43000000      -3.27357602      -1.68336733
        18    1     -2.0   0.81000000      -2.33826859      -2.33336733
        19    1     -2.0   2.43000000      -3.27357602       0.26663267
        20    2     2.0   4.05000000      -2.33826859      -4.28336733
        21    1     -2.0   4.05000000      -2.33826859      -2.33336733
        22    2     2.0  -4.05000000       0.46765372      -4.28336733
        23    2     2.0  -2.43000000      -0.46765371      -1.68336733
        24    1     -2.0  -4.05000000       0.46765372      -2.33336733
        25    1     -2.0  -2.43000000      -0.46765371       0.26663267
        26    2     2.0  -0.81000000       0.46765372      -4.28336733
        27    2     2.0   0.81000000      -0.46765371      -1.68336733
        28    1     -2.0  -0.81000000       0.46765372      -2.33336733
        29    1     -2.0   0.81000000      -0.46765371       0.26663267
        30    2     2.0   2.43000000       0.46765372      -4.28336733
        31    2     2.0   4.05000000      -0.46765371      -1.68336733
        32    1     -2.0   2.43000000       0.46765372      -2.33336733
        33    1     -2.0   4.05000000      -0.46765371       0.26663267
        34    2     2.0  -4.05000000       2.33826860      -1.68336733
        35    1     -2.0  -4.05000000       2.33826860       0.26663267
        36    2     2.0  -2.43000000       3.27357603      -4.28336733
        37    2     2.0  -0.81000000       2.33826860      -1.68336733
        38    1     -2.0  -2.43000000       3.27357603      -2.33336733
        39    1     -2.0  -0.81000000       2.33826860       0.26663267
        40    2     2.0   0.81000000       3.27357603      -4.28336733
        41    2     2.0   2.43000000       2.33826860      -1.68336733
        42    1     -2.0   0.81000000       3.27357603      -2.33336733
        43    1     -2.0   2.43000000       2.33826860       0.26663267
        44    2     2.0   4.05000000       3.27357603      -4.28336733
        45    1     -2.0   4.05000000       3.27357603      -2.33336733
        46    2     2.0  -4.05000000      -3.27357602       3.51663267
        47    2     2.0  -2.43000000      -2.33826859       0.91663267
        48    2     2.0  -0.81000000      -3.27357602       3.51663267
        49    1     -2.0  -2.43000000      -2.33826859       2.86663267
        50    2     2.0   0.81000000      -2.33826859       0.91663267
        51    2     2.0   2.43000000      -3.27357602       3.51663267
        52    1     -2.0   0.81000000      -2.33826859       2.86663267
        53    2     2.0   4.05000000      -2.33826859       0.91663267
        54    1     -2.0   4.05000000      -2.33826859       2.86663267
        55    2     2.0  -4.05000000       0.46765372       0.91663267
        56    2     2.0  -2.43000000      -0.46765371       3.51663267
        57    1     -2.0  -4.05000000       0.46765372       2.86663267
        58    2     2.0  -0.81000000       0.46765372       0.91663267
        59    2     2.0   0.81000000      -0.46765371       3.51663267
        60    1     -2.0  -0.81000000       0.46765372       2.86663267
        61    2     2.0   2.43000000       0.46765372       0.91663267
        62    2     2.0   4.05000000      -0.46765371       3.51663267
        63    1     -2.0   2.43000000       0.46765372       2.86663267
        64    2     2.0  -4.05000000       2.33826860       3.51663267
        65    2     2.0  -2.43000000       3.27357603       0.91663267
        66    2     2.0  -0.81000000       2.33826860       3.51663267
        67    1     -2.0  -2.43000000       3.27357603       2.86663267
        68    2     2.0   0.81000000       3.27357603       0.91663267
        69    2     2.0   2.43000000       2.33826860       3.51663267
        70    1     -2.0   0.81000000       3.27357603       2.86663267
        71    2     2.0   4.05000000       3.27357603       0.91663267
        72    1     -2.0   4.05000000       3.27357603       2.86663267
        73    2     2.0   0.74262082      -4.99508208      16.34158397
        74    2     2.0   0.64957541      -2.84322195      83.50033126
        75    2     2.0  -3.60402532      -4.34936359      83.16180679
        76    2     2.0   0.75914880      -2.13385375      72.71512848
        77    2     2.0   2.26094305       2.71637013      16.52418831
        78    2     2.0   4.16317252      -0.48286557      83.29221259
        79    2     2.0  -4.40457117      -2.22688964      24.22811416
        80    2     2.0   3.78119781       4.17387554      56.31478686
        81    2     2.0  -4.88283389       0.53002845      59.47804973
        82    2     2.0  -2.06637337       4.59279252      81.73622632
        83    2     2.0  -1.31853162       1.97409038      32.30636190
        84    2     2.0  -4.34275823      -0.92057506      38.94122841
        85    2     2.0   2.53556946       3.00560001      26.80911068
        86    2     2.0   3.33370902      -2.63879637      21.66391056
        87    2     2.0  -2.62966171      -2.64064433      17.89882680
        88    2     2.0   4.96718112      -2.58220839      72.57681556
        89    2     2.0  -0.09172133      -0.14203475      34.91186510
        90    2     2.0  -0.30727691       2.44904458      72.30002337
        91    2     2.0  -1.57014559      -3.16355398      44.62016189
        92    2     2.0  -1.22634185       0.99227282      39.72437264
        93    2     2.0   0.96477011       0.80697692      50.74918782
        94    2     2.0   0.34287614      -3.17823002      89.93719872
        95    2     2.0   0.28301426       3.71055344      76.08186096
        96    2     2.0   1.81012521       3.27967549      67.97295028
        97    2     2.0  -0.29875335       0.44396894       6.50792449
        98    2     2.0   1.03851566       3.97142337      60.80185595
        99    2     2.0   2.03547544      -0.12949238      42.63573426
       100    2     2.0  -3.10497174       3.46407347      49.58616990
       101    2     2.0  -1.55779139       0.31517830      78.22339932
       102    2     2.0   4.04614400       3.78891659      21.40261066
       103    2     2.0   1.81394591      -4.44379355      47.09394123
       104    2     2.0   4.74677595       3.35535258      40.91844070
       105    2     2.0   4.34164871       4.97610204      64.53004492
       106    2     2.0   3.64180209      -0.16784034      48.71467211
       107    2     2.0   3.64269238       4.35068556       6.93050062
       108    2     2.0  -2.47165559      -2.62333942      33.97022403
       109    2     2.0   4.27143163      -2.09073325      56.60680364
       110    2     2.0   2.04817498      -0.32187946      81.02886096
       111    2     2.0   3.24502126       2.18590603      78.90754540
       112    2     2.0  -1.03921982       0.53921997      25.01618737
       113    2     2.0   1.71086094       3.91793697      11.22788613
       114    2     2.0   4.72720366      -1.78141644       9.74692997
       115    2     2.0  -3.92209338       3.14790765      60.94199077
       116    2     2.0   0.66969931       2.38111380      44.08213521
       117    2     2.0   0.00859472      -1.91352520      66.18715336
       118    2     2.0  -4.81946958      -3.14413787      27.45849749
       119    2     2.0  -1.18935861      -0.12263681      75.29730432
       120    2     2.0   2.29090029       1.55565727      10.21986189
       121    2     2.0   3.00743948      -4.55377096      26.52321235
       122    2     2.0   1.73106326      -1.92098988       8.73507422
       123    2     2.0   2.72669106       4.88642915      52.69400936
       124    2     2.0   1.81350294       0.34951532      62.42718121
       125    2     2.0   3.68599963       4.98679568      13.37362269
       126    2     2.0   2.37261730      -4.89887978      84.47729349
       127    2     2.0   4.37611784      -1.92033648      24.93701780
       128    2     2.0   3.85946405       1.70802568      76.40109432
       129    2     2.0  -4.89607537       2.54729075      64.99942250
       130    2     2.0   0.70674671      -4.56925364      56.81586608
       131    2     2.0   2.09320712       1.43498250       6.94959231
       132    2     2.0   4.82932648       4.41870026      74.34179282
       133    2     2.0   0.68271540      -0.68814358      29.71889133
       134    2     2.0   3.89591488       4.71836314      47.58698465
       135    2     2.0   4.51669404       1.48547246      51.91901679
       136    2     2.0  -1.81574907      -3.01374530      87.42064585
       137    2     2.0   0.02202995       3.96078138      41.39452993
       138    2     2.0   3.37734548      -2.24437203      78.45095040
       139    2     2.0  -3.08557391      -4.46517678      76.28662717
       140    2     2.0   1.37994113      -3.39158737      62.11839776
       141    2     2.0   4.87147365       1.32874650      18.81710960
       142    2     2.0  -1.58525701      -3.19369216      68.62594776
       143    2     2.0  -2.17705757       2.43620755      29.64071017
       144    2     2.0   3.14573767       3.35879544      71.56627510
       145    2     2.0   3.21506157      -3.88366835      16.29546880
       146    2     2.0  -1.85196563       0.55809952      52.66640044
       147    2     2.0  -2.81039994       1.29628184       6.73860080
       148    2     2.0  -0.95580358      -4.52497522      81.80953630
       149    2     2.0   0.10392882      -0.17531994      89.85027508
       150    2     2.0  -1.62067697       2.77357143      12.59884331
       151    2     2.0  -2.42023269       0.84420936      84.77150479
       152    2     2.0  -2.34340739      -3.00187756      14.52925593
       153    2     2.0  -1.98421143      -0.14074383      16.36856724
       154    2     2.0   4.94452779      -0.42681042      65.06416385
       155    2     2.0   1.06117600      -3.34847489      12.93740386
       156    2     2.0  -4.98480968       1.35611861      36.99533464
       157    2     2.0  -1.64772197      -1.86433078      40.93485632
       158    2     2.0  -0.88254825       3.80826304      27.62048314
       159    2     2.0  -1.60009829      -4.99222131      55.34258908
       160    2     2.0   4.07347563      -3.27090969      59.70231175
       161    2     2.0   2.34096718      -4.63038967      42.90163218
       162    2     2.0   0.24162370       0.14459870      11.88347749
       163    2     2.0   3.57387388       0.72267271      12.60746489
       164    2     2.0  -4.25016015      -3.58439450      60.83178551
       165    2     2.0   3.56301843      -4.10223440      70.81335463
       166    2     2.0   2.66470086       4.53316047      29.15118165
       167    2     2.0  -4.16015123      -3.93073350      10.91947761
       168    2     2.0   2.08251757       1.31654606      55.86913720
       169    2     2.0  -2.47662125       3.31718366      87.40119143
       170    2     2.0  -4.13766654       4.48025325      46.53242066
       171    2     2.0  -4.27860732       3.58157668       7.27515664
       172    2     2.0  -4.75970820       3.10244303      20.97472359
       173    1     -2.0   3.95974157       2.85263133      37.57134642
       174    1     -2.0  -4.73467135      -1.69007062      35.65802788
       175    1     -2.0  -2.32479791      -4.50844317      47.85977152
       176    1     -2.0   4.85558042      -1.89564473      49.87342297
       177    1     -2.0  -2.07481574      -2.88969864      83.41367426
       178    1     -2.0   1.87388624       1.04742930      65.88191166
       179    1     -2.0  -1.68651531       2.11998106      47.24037366
       180    1     -2.0   1.11925188       3.22070474      21.89857329
       181    1     -2.0  -0.91254019       3.00195890      60.29563945
       182    1     -2.0   1.18413575       1.74706125      60.40342347
       183    1     -2.0  -4.36187660       4.11868541      69.92783820
       184    1     -2.0  -1.68619319      -2.35923635      11.19113813
       185    1     -2.0  -4.86780587      -1.68929712      32.77092473
       186    1     -2.0   0.68219813      -2.71776225      48.52123548
       187    1     -2.0   4.52365525      -3.80104226      28.89172205
       188    1     -2.0  -3.74988019       1.48620646      14.17439759
       189    1     -2.0   1.96457806      -1.86885673      60.72671274
       190    1     -2.0  -4.95685459      -2.07908694      77.25839048
       191    1     -2.0   4.62726426      -3.76454276      32.80590470
       192    1     -2.0   0.97786726       1.99370161      79.70925943
       193    1     -2.0   3.39304771       0.36557537      38.53924886
       194    1     -2.0  -1.89822289       0.66531584      48.17454497
       195    1     -2.0   3.27061804       2.78525082      57.96535104
       196    1     -2.0   2.04659295      -3.59720996      37.43588862
       197    1     -2.0   2.00154876      -2.06791411      11.09325560
       198    1     -2.0   3.43726883       0.77209892      25.77604071
       199    1     -2.0   2.11296383      -2.37930737      43.95040226
       200    1     -2.0   4.02369881       1.03380049      72.59758611
       201    1     -2.0  -4.65092789      -2.72464519      64.08079235
       202    1     -2.0   2.10424574      -4.65571616      23.18731555
       203    1     -2.0  -4.79071221       0.94063677      57.58112001
       204    1     -2.0   0.63184919       0.61379735       8.50284720
       205    1     -2.0  -3.71098721       3.20146300      53.33110955
       206    1     -2.0  -4.78933036       1.63007802      87.52536243
       207    1     -2.0  -1.11390399       2.92725882      19.55218328
       208    1     -2.0   2.07059731      -0.57577602      19.71389124
       209    1     -2.0  -1.70568814      -4.34978347      21.37640019
       210    1     -2.0   1.81477755       0.46211815      21.65932329
       211    1     -2.0  -1.35127259      -2.29399810      71.48606108
       212    1     -2.0  -4.03171686       1.00034465       9.16630371
       213    1     -2.0  -2.19182355      -1.90909235      77.64632474
       214    1     -2.0   1.65039304       3.94177216      69.98251499
       215    1     -2.0  -0.55833262      -2.00868179      39.02752110
       216    1     -2.0  -1.84778632      -4.34678539      41.44052589
       217    1     -2.0   3.13420782       1.50644616      24.68815577
       218    1     -2.0   4.85564714      -2.44088644      13.92722707
       219    1     -2.0  -2.61151697      -0.71784338      89.50871029
       220    1     -2.0   1.21001676       4.53928366      27.24478491
       221    1     -2.0  -4.15217309       1.15634441      81.55678543
       222    1     -2.0  -0.44915209      -2.20849604      37.02746166
       223    1     -2.0   0.22621247       1.25316111      63.29220590
       224    1     -2.0   4.69735732       3.86431874      32.49531350
       225    1     -2.0   2.59867243      -1.33453754      23.31549458
       226    1     -2.0  -0.79304827       1.56615051      28.65272739
       227    1     -2.0  -0.22695244      -3.24148109      51.13473974
       228    1     -2.0  -4.83283526       2.67015732      67.30633802
       229    1     -2.0   3.72105000       2.01973294      67.41044393
       230    1     -2.0  -1.08662311       1.48850690       7.95835912
       231    1     -2.0  -0.13861170      -0.02805638      19.20615578
       232    1     -2.0   1.67268574       1.28657880      30.44189969
       233    1     -2.0   1.54071222      -3.64273952      39.32270200
       234    1     -2.0  -0.79259234       0.43784337      64.36356206
       235    1     -2.0  -2.91963791       2.23812921      16.99372770
       236    1     -2.0   4.89575836       3.98547736      15.56025422
       237    1     -2.0  -3.57665009      -4.74148855      20.09193354
       238    1     -2.0  -2.57394587       2.33178001      81.06207421
       239    1     -2.0   1.58497485      -0.29502974      78.51657945
       240    1     -2.0  -0.09845933      -2.97870926      14.58973987
       241    1     -2.0  -1.88141135      -2.71532802      49.86279388
       242    1     -2.0   1.33937967      -2.07411493      14.86669348
       243    1     -2.0  -4.74696228      -1.19021921      87.76595421
       244    1     -2.0  -3.33023983      -2.01908107      44.86393614
       245    1     -2.0   2.35328696       4.80383444      78.81290664
       246    1     -2.0  -0.30214697       1.94770336      23.45286494
       247    1     -2.0  -0.75584580      -3.75059086      37.10313983
       248    1     -2.0   2.56986388      -1.54293774      87.48024961
       249    1     -2.0   3.65815087      -4.75970625      67.93330394
       250    1     -2.0   4.67525132       2.96080321      80.00729525
       251    1     -2.0   3.22923384      -1.97880879      43.10038374
       252    1     -2.0  -3.04627446      -3.36969245      47.99613039
       253    1     -2.0  -0.61596246      -0.16955419      14.53066680
       254    1     -2.0  -1.36301027       4.01650893      58.11104084
       255    1     -2.0  -0.65745066      -4.09688005      25.19665318
       256    1     -2.0   4.70180802       2.75961376      58.91801445
       257    1     -2.0   4.90501978       4.54399013      88.02778079
       258    1     -2.0   1.18583870       4.95972429      46.65574936
       259    1     -2.0   3.17824304      -3.67207400      79.94577470
       260    1     -2.0   0.00274134      -0.34211634      73.75299251
       261    1     -2.0  -4.39826506      -2.08396233      82.21217699
       262    1     -2.0   0.60348628       1.85737410      87.08737918
       263    1     -2.0   3.32487835      -3.49098268      34.21727980
       264    1     -2.0  -1.25608736      -1.70349658      30.77271787
       265    1     -2.0  -3.95359635       0.97654349      75.87602341
       266    1     -2.0  -0.52090432       4.08939484      24.49396345
       267    1     -2.0   3.70079748       3.13987804      34.67074522
       268    1     -2.0   3.84514887      -0.82942076      28.17243610
       269    1     -2.0   0.66510121      -2.40276116      34.53933267
       270    1     -2.0  -3.05900698      -3.54839613      62.86593244
       271    1     -2.0  -3.84424975      -4.89720171      89.42742439
       272    1     -2.0   0.90836703      -3.59635461      86.79368698
