 # Voronoi polycrystal with 50 grains
 
        1759  atoms
           3  atom types
 
      0.00000000      58.90408500  xlo xhi
      0.00000000      59.33644050  ylo yhi
      0.00000000      25.31836662  zlo zhi
 
Masses
 
           1   15.99900000    # O 
           2   118.71000000    # Sn
           3   65.38000000    # Zn
 
Atoms # atomic
 
         1    1       44.19165300      48.41272200       6.65032123
         2    2       44.90256900      49.44849000       3.27340643
         3    1       43.24354400      50.03800700       2.30959547
         4    1       41.50827150      46.21260300       4.35010079
         5    2       45.37932900      44.83706300       6.59899296
         6    1       43.72030450      45.42658000       5.63518207
         7    1       46.34176900      46.58723400       6.01282444
         8    2       42.84996250      47.31266250       5.50021101
         9    2       44.43122000      46.46234800       2.25826720
        10    1       43.94012150      47.69831650       3.85958650
        11    1       42.77219550      47.05186500       1.29445631
        12    1       46.09024500      45.87283100       3.22207816
        13    1       45.39365950      48.21251850       1.67209868
        14    1       48.30227800      45.08680800       4.50715937
        15    2       47.43193600      46.97289050       4.37218838
        16    1       47.35416900      46.71209300       0.16643368
        17    2       46.48382650      48.59817500       0.03146262
        18    2       40.32600700      42.19069300       6.71187643
        19    1       41.28844650      43.94086400       6.12570791
        20    2       39.37789800      43.81597800       2.37115074
        21    1       41.03692250      43.22646100       3.33496163
        22    2       44.90798050      41.85092100       5.58385380
        23    1       43.24895550      42.44043800       4.62004284
        24    1       45.87042000      43.60109200       4.99768521
        25    2       42.37861350      44.32652050       4.48507185
        26    2       43.95987150      43.47620600       1.24312804
        27    1       43.46877300      44.71217450       2.84444734
        28    1       42.30084650      44.06572300       0.27931715
        29    1       45.61889600      42.88668900       2.20693893
        30    1       44.92231100      45.22637650       0.65695952
        31    2       49.48995400      41.51114900       4.45583110
        32    1       48.99885550      42.74711750       6.05715040
        33    1       47.83092900      42.10066600       3.49202021
        34    2       46.96058700      43.98674850       3.35704915
        35    2       48.54184500      43.13643400       0.11510541
        36    1       48.05074650      44.37240250       1.71642464
        37    1       40.81709800      40.95472200       5.11056875
        38    2       38.90654900      40.82983600       1.35601151
        39    1       38.41545050      42.06580450       2.95733081
        40    1       39.86898850      42.58000650       0.76984299
        41    2       41.90726500      41.34037850       3.46993262
        42    1       42.99742400      41.72603250       1.82930811
        43    2       46.48923800      41.00060650       2.34190999
        44    1       47.57939750      41.38626050       0.70128548
        45    2        5.86642800      24.03025450       2.90854165
        46    1        5.35917200      25.52095450       4.15326205
        47    1        7.55409000      25.09671300       2.31909713
        48    2        9.80844750      21.54252100       2.09982206
        49    1       10.31570350      20.05182050       0.85510159
        50    1        9.30119100      23.03322100       3.34454246
        51    1       11.49610900      22.60897950       1.51037761
        52    1        4.68283050      27.50855500       5.81288932
        53    2        5.47003900      27.58250700       3.88731077
        54    2        8.11759350      26.51152150       6.24889020
        55    1        7.32799450      27.58056700       4.64679950
        56    1        8.62484950      25.02082150       5.00416973
        57    2        9.41205850      25.09477350       3.07859118
        58    2       12.05961250      24.02378800       5.44017061
        59    1       11.27001350      25.09283350       3.83807991
        60    1       12.56686900      22.53308800       4.19545021
        61    1       11.55235650      25.51448850       6.68489108
        62    2       13.35407750      22.60703950       2.26987166
        63    1        6.65601400      22.96120900       4.51062696
        64    2        8.91037150      19.40701650       4.29135189
        65    1        8.12077250      20.47606200       2.68926119
        66    1        9.41762750      17.91631650       3.04663142
        67    1        8.40311550      20.89771700       5.53607236
        68    1       10.59803300      20.47347550       3.70190744
        69    2       10.20483650      17.99026850       1.12105294
        70    1        6.42991850      25.44506300       6.83832933
        71    1        7.72677400      22.88531750       7.19569956
        72    2        8.51398250      22.95926900       5.27012101
        73    1       10.37193800      22.95732950       6.02960974
        74    1       11.66879300      20.39758350       6.38698004
        75    1       12.84919850      22.95474250       7.04225599
        76    1        9.69995750      18.33797150       5.89343727
        77    1       26.95779400      41.09408250       4.86645565
        78    2       25.52536550      43.18169100       2.30290172
        79    1       24.63916950      44.80863850       3.07525092
        80    2       27.63657150      46.49466800       6.44042203
        81    1       28.52276750      44.86772050       5.66807283
        82    1       25.92663850      46.09366750       5.32314454
        83    2       27.74028050      42.98090150       5.26726424
        84    2       28.27193350      44.78606550       2.07472006
        85    1       27.23530200      43.58268750       3.42019223
        86    1       29.15812950      43.15911800       1.30237093
        87    1       27.38573800      46.41301300       2.84706919
        88    1       26.56200050      44.38506500       0.95744257
        89    1       31.26933550      46.47209500       5.43989117
        90    2       30.48684900      44.58527600       5.03908258
        91    2       31.01850200      46.39044000       1.84653840
        92    1       29.98187000      45.18706200       3.19201057
        93    1       29.30856900      45.98943900       0.72926091
        94    1       32.72843850      46.79143650       2.96382891
        95    1       35.82995600      15.14947150      -2.18692943
        96    2       37.45416350      14.38546900       2.13891881
        97    1       38.95194350      13.16685150       1.36132962
        98    1       36.75807450      14.71289850       0.28498386
        99    2       36.55613850      13.40214850      -1.31943959
       100    1       32.50878450      14.48256650      -1.78210165
       101    2       38.85890950      18.76530750      -1.23684540
       102    1       37.88538950      16.92585450      -1.19619402
       103    1       35.30570850      18.20754550      -1.44999589
       104    2       36.92991600      17.44354250       2.87585242
       105    1       38.42769650      16.22492550       2.09826316
       106    1       36.23382750      17.77097250       1.02191740
       107    1       35.95639600      15.60408950       2.91650373
       108    2       36.03189150      16.46022200      -0.58250605
       109    2       32.68062600      17.21321050       0.80876691
       110    1       34.17840650      15.99459300       0.03117765
       111    1       31.98453750      17.54064000      -1.04516804
       112    1       33.37671500      16.88578050       2.66270186
       113    1       31.70710600      15.37375750       0.84941829
       114    2       31.78260150      16.22988950      -2.64959149
       115    1       29.92911650      15.76426050      -2.03590779
       116    1       29.12742500      16.65544800       0.59561642
       117    2       34.10289800      15.13845700       3.53019177
       118    2       38.33466250      21.82338100      -0.49991179
       119    1       37.63857350      22.15081100      -2.35384681
       120    1       39.03075150      21.49595150       1.35402316
       121    1       37.36114250      19.98392800      -0.45926048
       122    2       36.40566900      20.50161650       3.61278596
       123    1       37.90344950      19.28299900       2.83519670
       124    1       35.70958000      20.82904600       1.75885101
       125    1       35.43214900      18.66216350       3.65343734
       126    2       35.50764450      19.51829600       0.15442756
       127    1       33.65415950      19.05266650       0.76811126
       128    1       31.18285900      18.43183100       1.58635183
       129    1       36.83689550      23.04200200       0.27767306
       130    1       37.37920250      22.34107250       3.57213031
       131    2       10.53165550       2.31951600       0.11661895
       132    1       10.62944200       0.26267300      -0.18803568
       133    1        7.86219150       0.18513800      -1.02362820
       134    2        8.77037550      -0.44577250       3.52740108
       135    1       10.79613800      -0.65091500       3.09470959
       136    1        8.38115400      -0.17538200       1.57696000
       137    1        8.86816200      -2.50261550       3.22274645
       138    2        9.18344200      -1.12612000      -0.09200688
       139    2        8.40811650       4.58151200       0.85396451
       140    1        8.01889450       4.85190200      -1.09647664
       141    1        8.79733800       4.31112200       2.80440559
       142    1        8.50590300       2.52466850       0.54930981
       143    1        5.73865250       2.44713400      -0.28628271
       144    2        6.64683650       1.81622350       4.26474657
       145    1        8.67259900       1.61108100       3.83205508
       146    1        6.25761500       2.08661400       2.31430549
       147    1        6.74462300      -0.24062000       3.96009194
       148    2        7.05990300       1.13587600       0.64533868
       149    1        5.61391350      -0.25290700       0.74136678
       150    1        6.54906000       3.87307650       4.56940057
       151    2        4.93636450       3.39787200       1.38268417
       152    1       28.08360150      53.96781000       3.47724454
       153    1       28.26317550      53.28117150       0.14031367
       154    1       27.06751300      52.83510200       5.93619516
       155    1       25.47248000      50.89280750       4.50606884
       156    2       30.10665250      50.80889150       3.83367460
       157    1       30.28114450      52.64022900       4.80772495
       158    1       28.12057850      50.84485550       4.12184353
       159    1       32.09272700      50.77292750       3.54550560
       160    1       29.89518600      52.10051150       2.21503898
       161    2       26.77804050      52.43030900       3.99165669
       162    2       26.31407850      50.19418050       1.07308159
       163    1       26.48857050      52.02551850       2.04713194
       164    1       28.30015250      50.15821650       0.78491259
       165    1       30.94825150      50.11026450       0.40068735
       166    2       29.60571350      51.69571800       0.27050051
       167    2       30.14363000      47.68593700       4.47827352
       168    1       30.31812150      49.51727450       5.45232387
       169    1       28.15755550      47.72190100       4.76644252
       170    1       32.12970400      47.64997250       4.19010459
       171    1       29.93216300      48.97755650       2.85963790
       172    2       26.81501800      49.30735400       4.63625568
       173    2       26.35105600      47.07122600       1.71768058
       174    1       26.52554750      48.90256350       2.69173093
       175    1       28.33713000      47.03526200       1.42951158
       176    1       30.98522850      46.98731000       1.04528634
       177    2       29.64269050      48.57276300       0.91509950
       178    1       27.98534650      16.29509600       2.43207783
       179    2       26.40350800      18.57594600       6.20437489
       180    1       28.25641500      18.34104550       7.12338319
       181    1       27.08143850      17.59843900       4.58767617
       182    1       25.72557700      19.55345300       7.82107368
       183    1       26.09792450      16.75971800       7.17438316
       184    2       28.30704850      15.92119900       4.45438539
       185    2       24.83526500      14.97009750       3.57362726
       186    1       26.68817200      14.73519700       4.49263556
       187    1       28.37862450      19.15834600       2.52711816
       188    2       24.85619550      20.62708250       4.31535811
       189    1       26.70910300      20.39218200       5.23436641
       190    1       25.53412650      19.64957550       2.69865939
       191    1       24.17826500      21.60458950       5.93205690
       192    1       24.55061200      18.81085450       5.28536638
       193    2       26.75973650      17.97233600       2.56536861
       194    1       25.14086000      16.78633400       2.60361878
       195    1       25.16179050      22.44331900       3.34534963
       196    1       19.43233850      29.61598250       3.98914901
       197    1       15.87305450      32.56509850       2.98089610
       198    2       17.65361550      28.71962600       0.98674002
       199    1       16.89051800      30.36768600       1.84137835
       200    2       14.09433150      31.66874200      -0.02151282
       201    2       16.68305200      29.45395300       6.56086354
       202    1       16.76117400      30.43993650       4.72927567
       203    1       13.88686550      30.75500900       4.69797237
       204    1       17.57550300      27.73364150       2.81833818
       205    1       14.90432900      28.55759650       3.55845462
       206    1       15.74554900      27.89552050       0.87222842
       207    2       15.38869150      30.56134750       3.26967536
       208    2       12.10814250      29.85865300       1.69556338
       209    1       14.01621900      30.68275750       1.81008534
       210    1       11.34504500      31.50671250       2.55020171
       211    1       12.87124000      28.21059300       0.84092512
       212    1       12.18626500      30.84463650      -0.13602442
       213    1       14.77498500      28.62984750       6.44635194
       214    1       11.90067650      28.94492000       6.41504857
       215    1       11.21570100      31.57896300       5.43809903
       216    2       13.40250250      28.75125800       4.98675156
       217    2       10.12195350      28.04856350       3.41263965
       218    1       12.03003000      28.87266800       3.52716154
       219    1        9.35885600      29.69662300       4.26727798
       220    1       10.20007600      29.03454700       1.58105178
       221    2        9.84321850      31.70037400       3.97849872
       222    2        6.56266950      30.99767950       2.40438674
       223    1        8.47074600      31.82178400       2.51890870
       224    1        7.32576700      29.34961950       1.54974848
       225    2        8.82759350      29.15595800       0.12145147
       226    1        7.37266700      27.88653350       5.98435418
       227    2        7.85703000      29.89028450       5.69557492
       228    2        4.57648050      29.18759000       4.12146301
       229    1        6.48455700      30.01169450       4.23598490
       230    1        4.65460300      30.17357400       2.28987514
       231    2       41.73690500      27.77437250       2.94975737
       232    1       42.78143100      29.27416150       3.94605939
       233    1       42.87636450      26.38578650       3.84546155
       234    1       44.39564400      24.53433800       5.03973372
       235    2       44.91784550      26.38905600       4.25211283
       236    2       39.17322350      25.91638450       3.33072698
       237    1       40.21774900      27.41617400       4.32702893
       238    1       40.31268250      24.52779850       4.22643109
       239    1       40.69237700      26.27458900       1.95346795
       240    1       41.83196200      22.67635050       5.42070326
       241    2       42.35416350      24.53106850       4.63308237
       242    2       41.66561100      22.17508600       1.85660020
       243    1       42.71013650      23.67487550       2.85290222
       244    1       40.52615150      23.56367200       0.96089609
       245    1       39.43450600      23.52928000       6.79424466
       246    2       36.60954150      24.05839700       3.71169652
       247    1       37.65406700      25.55818650       4.70799854
       248    1       37.74900050      22.66981100       4.60740063
       249    1       38.12869500      24.41660150       2.33443749
       250    2       39.79048150      22.67308100       5.01405198
       251    1       40.14645450      21.81688750       3.23387176
       252    2        0.36180100      -3.36863050       3.37944089
       253    1        0.73553250      -2.58518950       5.18923909
       254    1        1.23384150      -1.54060100       7.60230338
       255    2       -0.25172100      -2.86842300       6.99979917
       256    2       -1.03377550       0.51199150       5.69795408
       257    1       -1.46279850      -1.32349100       6.58110887
       258    1       -0.66004350       1.29543250       7.50775228
       259    1        0.79083250      -1.53315900       2.49628904
       260    2        2.22109550      -1.25736750       5.79174330
       261    2        1.43904150       2.12304700       4.48989821
       262    1        1.01001800       0.28756450       5.37305300
       263    1        1.06530950       1.33960600       2.68010001
       264    1        1.81277300       2.90648800       6.29969641
       265    2        3.29833600       4.23431000       6.90220062
       266    2       53.47104850      35.37278550       3.42514683
       267    1       53.13059050      37.21501150       2.70464999
       268    2       51.61506300      37.11505800      -0.56260491
       269    1       51.27460500      38.95728400      -1.28310182
       270    1       51.95552100      35.27283150       0.15789193
       271    2       52.74992300      30.97430350       1.83905127
       272    1       52.40946500      32.81653000       1.11855436
       273    1       53.09038150      29.13207750       2.55954811
       274    1       53.68090750      30.44791900       0.05322695
       275    2       53.62889400      34.04953250      -0.03284351
       276    2       50.89393750      32.71657650      -2.14870054
       277    1       52.85576100      33.25266950      -1.70499770
       278    1       51.23439550      30.87435000      -1.42820370
       279    1       51.68833950      28.41804850      -0.46754120
       280    2       52.90776900      29.65105100      -1.61893907
       281    2       50.57824600      35.36308250       4.76728014
       282    1       50.23778800      37.20530850       4.04678323
       283    1       51.50923050      34.83669750       2.98145582
       284    2       51.45721700      38.43831100       2.89538536
       285    2       48.72226050      37.10535500       0.77952833
       286    1       50.68408400      37.64144800       1.22323117
       287    1       49.06271850      35.26312850       1.50002517
       288    1       49.65324500      36.57897000      -1.00629599
       289    2       49.85712100      30.96460050       3.18118451
       290    1       51.81894400      31.50069400       3.62488735
       291    1       49.51666300      32.80682700       2.46068767
       292    1       50.78810550      30.43821600       1.39536019
       293    2       50.73609200      34.03982950       1.30928980
       294    2       48.00113500      32.70687350      -0.80656730
       295    1       49.96295850      33.24296650      -0.36286446
       296    1       47.66067700      34.54909950      -1.52706414
       297    1       48.34159350      30.86464700      -0.08607039
       298    2       50.01496650      29.64134800      -0.27680583
       299    1       48.61642850      34.82699450       4.32358906
       300    1       47.79128150      37.63174500       2.56536441
       301    1       46.16991650      35.25342550       2.84215848
       302    1       46.76044250      36.56926700       0.33583725
       303    1       46.62386050      32.79712400       3.80282091
       304    2       47.84328950      34.03012650       2.65142304
       305    1       47.07015600      33.23326350       0.97926885
       306    1       46.03931750      32.17078550      -1.25025831
       307    2       36.96615400      11.81232800       2.76321094
       308    1       35.07085850      12.24522700       3.26248916
       309    2       30.64850250      13.25532500       4.42747158
       310    1       32.54379800      12.82242600       3.92819343
       311    1       28.75320700      13.68822400       4.92674980
       312    1       29.98939600      11.58621350       3.37265978
       313    2       33.51300900      10.98327500       3.82249077
       314    2       32.89535000      12.23742400       0.39040414
       315    1       32.96582250      10.80543350       1.89952847
       316    1       34.79064550      11.80452500      -0.10887408
       317    1       31.00005450      12.67032300       0.88968229
       318    1       32.23624400      10.56831250      -0.66440773
       319    1       28.47299400      13.24752150       1.55538656
       320    2       29.44220550      11.40837100       1.44968390
       321    1       28.89501850      11.23052950      -0.47327833
       322    1       30.57803400      14.68731650       2.91836076
       323    2       34.10164700      14.08437800       3.36819175
       324    1       33.55446050      13.90653650       1.44522945
       325    1       32.82488200      13.66941550      -1.11870668
       326    1       29.06163200      16.34862450       1.10108754
       327    2       30.03084350      14.50947350       0.99538495
       328    1       29.48365650      14.33163200      -0.92757735
       329    2       48.71788000      26.78003900       0.33210541
       330    1       48.02922650      25.25539900       1.44118352
       331    1       47.11102150      23.22254550       2.91995431
       332    1       46.11361400      25.86999900       3.51834413
       333    2       45.72315100      27.70526950      -0.25548852
       334    1       47.24775200      28.02158950       1.12601559
       335    1       46.41180500      29.22990950      -1.36456663
       336    1       45.03449750      26.18062950       0.85358959
       337    1       47.19328000      26.46372700      -1.04938715
       338    1       44.11629250      24.14777650       2.33236038
       339    2       46.07275950      24.70158750       1.88677195
       340    2       44.50730450      23.21686450      -1.12629286
       341    1       46.03190550      23.53318450       0.25521125
       342    2       47.15242550      25.29531600      -2.68095940
       343    2       42.72842200      28.63050000      -0.84308245
       344    1       44.25302250      28.94682000       0.53842166
       345    1       42.03976850      27.10586050       0.26599566
       346    1       44.19855050      27.38895800      -1.63698115
       347    2       43.07803050      25.62681850       1.29917802
       348    1       43.03717600      24.45841550      -0.33238268
       349    2       22.17752900      48.50941200      10.33003426
       350    1       22.18681600      47.08398900       8.91691430
       351    1       20.48342600      49.35538900       9.46555820
       352    2       20.60339350      46.04082400       8.05807912
       353    2       21.93178250      48.48088200       5.60550718
       354    1       20.44665850      47.44912900       6.63648286
       355    1       21.94106950      47.05545900       4.19238722
       356    1       21.92249550      49.90630500       7.01862714
       357    1       20.23767950      49.32685900       4.74103119
       358    2       21.90082550      53.23229200      10.31590707
       359    1       21.91011250      51.80686900       8.90278711
       360    2       20.32669000      50.76370400       8.04395193
       361    2       21.65507900      53.20376200       5.59138006
       362    1       20.16995450      52.17200900       6.62235567
       363    1       21.66436600      51.77833900       4.17826010
       364    1       23.66265450      49.54115550       9.29906866
       365    2       23.78262200      46.22659000       7.89158951
       366    2       25.11101100      48.66664850       5.43901764
       367    1       23.62588700      47.63489500       6.46999325
       368    1       25.10172400      50.09207150       6.85213760
       369    1       23.41690800      49.51262550       4.57454158
       370    2       23.50591800      50.94947050       7.87746239
       371    1       23.34918300      52.35777550       6.45586613
       372    1       -0.53603150      10.92910150       3.44324666
       373    1        1.19896100      11.80336350       0.63891191
       374    1       -0.30673350       9.22341950       5.76703043
       375    1        0.81414750       8.04076350       3.37812860
       376    1       -0.27235050       9.34611450       1.03774671
       377    1        2.51475750       8.79233050       5.30307750
       378    2        0.98936300       9.86071600       4.37316208
       379    2        3.82459800       9.47870100       2.01750549
       380    1        2.28545000      10.49800850       2.97930360
       381    1        2.54914050       8.91502550       0.57379378
       382    1        5.10005550      10.04237600       3.46121720
       383    2        1.02374550       9.98341100      -0.35612164
       384    1        3.86493700       5.90399250       5.23795944
       385    1        5.32935350       8.33669350       5.78500097
       386    2        2.33954200       6.97237800       4.30804402
       387    2        5.17477700       6.59036300       1.95238736
       388    1        3.63562950       7.60967050       2.91418547
       389    1        3.89931950       6.02668750       0.50867565
       390    1        6.45023450       7.15403800       3.39609914
       391    1        5.36373650       8.45938900       1.05571725
       392    2        2.37392500       7.09507300      -0.42123977
       393    1        8.15084450       7.90560500       5.32104804
       394    2        6.62545000       8.97399050       4.39113262
       395    2        9.46068500       8.59197550       2.03547603
       396    1        8.18522750       8.02830000       0.59176432
       397    1        6.67953300       5.44835550       5.71988291
       398    2        3.68972150       4.08404000       4.24292589
       399    1        4.98580850       4.72133250       2.84906734
       400    1        6.71391600       5.57105100       0.99059912
       401    2        7.97562900       6.08565250       4.32601456
       402    1        9.27171650       6.72294500       2.93215601
       403    2        8.01001200       6.20834750      -0.40326923
       404    2        4.16174950      36.46592450       8.05102039
       405    1        5.55911400      37.82023050       8.54300846
       406    1        3.29374000      36.64695400       4.55880656
       407    2        6.45023150      34.35114550       7.37257913
       408    1        5.28056350      34.97497450       8.97748845
       409    1        5.05286700      32.99683900       6.88059099
       410    1        7.84759600      35.70545150       7.86456720
       411    1        5.33141700      35.84209050       6.44612444
       412    2        4.18485750      33.17786900       3.38837723
       413    1        5.58222200      34.53217500       3.88036530
       414    1        7.44537450      36.33791650       4.53634944
       415    2        5.36955750      36.49243550       4.54757800
       416    1        5.40769750      37.14277600       2.64904500
       417    2        8.73871300      32.23636650       6.69413787
       418    1        7.56904550      32.86019550       8.29904719
       419    1        7.34134850      30.88206050       6.20214973
       420    1       10.13607750      33.59067250       7.18612594
       421    1        7.61989850      33.72731150       5.76768318
       422    2        5.26553150      31.03657900       6.21337829
       423    1        5.30367150      31.68691950       4.31484529
       424    1        7.87070350      32.41739650       3.20192404
       425    1       11.99923000      35.39641400       7.84211008
       426    2        9.92341300      35.55093250       7.85333864
       427    2       11.13122100      35.57744400       4.34989632
       428    1        9.96155300      36.20127300       5.95480564
       429    1        9.73385600      34.22313800       3.85790818
       430    1       10.01240650      37.06838900       3.42344163
       431    2        7.65803900      34.37765650       3.86913674
       432    1       14.28771200      33.28163500       7.16366882
       433    1       14.56626200      36.12688650       6.72920227
       434    2       12.21189450      33.43615400       7.17489738
       435    2       13.41970250      33.46266500       3.67145506
       436    1       12.25003500      34.08649400       5.27636438