720
Atoms. Timestep: 0
1 -25.8922 -0.523294 0.142465
1 3.2123 -14.5447 10.1291
1 -4.61178 -26.094 33.8711
1 0.622366 -1.84179 -3.97955
1 11.226 -8.36618 13.2743
1 -2.34236 -18.41 25.1969
1 -16.5024 -0.46562 -22.7604
1 -25.387 19.1452 -29.6817
1 16.4576 17.9693 -0.182241
1 -6.01392 -22.1706 -2.97634
1 -0.118258 17.6472 5.53098
1 0.417287 3.7622 16.7539
1 -13.2269 1.81955 16.2607
1 0.339407 -1.11631 12.0576
1 -3.57193 8.36046 0
1 10.7502 -4.32888 -12.2265
1 -7.45023 16.1773 3.59192
1 2.71293 18.0096 -4.99029
1 3.78847 -20.6248 30.4749
1 -19.7164 8.86583 -20.5075
1 0.840495 0.497111 5.23102
1 25.713 -22.0803 -0.463277
1 1.05134 9.23648 18.7951
1 -30.7741 -9.06351 -0.901773
1 -29.8637 -7.46898 -0.836983
1 -17.1614 -0.600178 1.71192
1 0.110357 11.1435 -8.03642
1 5.85585 9.51667 -0.703801
1 28.0479 4.28972 -0.834734
1 8.59893 -8.17264 12.5513
1 6.66571 -19.2019 26.8165
1 10.0828 30.8004 8.01019
1 14.021 -2.07333 0.63794
1 13.603 1.47931 -10.4715
1 5.27312 -7.87569 8.37515
1 6.35116 0.577069 -4.66655
1 -5.5635 -23.8277 17.0963
1 -8.95039 -3.02371 14.4236
1 7.25697 16.3168 -20.7092
1 -3.24448 -2.53318 -17.3034
1 25.9369 15.7787 6.71198
1 -9.68256 -19.2243 -14.126
1 -0.852949 -4.45354 6.25989
1 31.4825 4.93814 30.6422
1 -13.3057 -16.2798 26.0027
1 -2.34897 -34.7529 -16.3372
1 -12.9727 -26.056 -5.84059
1 11.2541 -11.3924 -27.6158
1 -13.213 1.91163 -1.04946
1 27.4058 -5.38875 16.4897
1 14.6353 4.08674 -2.72581
1 -17.7652 5.52757 -1.28075
1 5.97155 -13.2294 -20.2764
1 23.6961 -12.5927 -23.6873
1 10.5415 14.3521 4.76194
1 12.7098 25.5206 -25.1482
1 4.7948 -7.33526 2.75848
1 -1.85465 -7.84101 29.2941
1 6.49657 1.45996 -12.5913
1 34.4716 -14.8978 -4.87763
1 3.68482 27.1308 -19.0586
1 -0.45941 -4.68087 -19.3415
1 16.2668 -9.51873 4.33931
1 -13.9914 7.76149 -14.8489
1 7.70758 15.5311 35.9532
1 29.1453 -25.5964 6.57464
1 19.3106 -30.5382 -22.1488
1 28.9558 -3.25406 18.9327
1 2.62211 -15.1494 -23.7261
1 7.18183 -10.8434 27.4924
1 -10.5896 -5.00626 7.85125
1 -7.27801 0 22.2047
1 7.85649 2.77282 24.8753
1 -8.82496 2.44879 5.88941
1 15.6966 19.1671 -0.377186
1 11.4689 -1.23119 -28.561
1 -3.74279 -1.80109 4.86401
1 -12.6598 -24.3973 -29.7408
1 -10.7844 17.9747 -23.6904
1 -1.4479 0.299859 -7.40311
1 -24.2221 -10.6419 -14.489
1 0.463707 -18.3829 14.5955
1 -19.8492 -5.93554 13.0583
1 0.594978 13.7563 4.32958
1 13.554 3.20888 -26.3704
1 8.49349 10.563 8.12549
1 4.17825 5.88836 4.87825
1 -17.9922 3.40288 14.6002
1 5.13255 11.1228 13.8217
1 -5.92861 0.516104 0.00846426
1 -21.9271 0.403051 -6.31619
1 -8.63801 18.3064 5.77347
1 -14.8916 0.453396 -0.662884
1 10.861 -19.9214 -7.37207
1 4.97891 3.20486 2.66987
1 -28.055 21.315 -29.1414
1 -8.24766 -3.50761 10.9748
1 2.14898 -12.9585 -0.313138
1 0 -2.30723 -7.48437
1 6.41811 -19.3529 -1.66943
1 -7.54464 17.9629 -26.8164
1 -37.496 8.31742 -1.60983
1 -2.88058 -0.349214 33.5545
1 -4.52257 32.6137 -26.9166
1 8.03129 -0.143837 -8.56345
1 11.9191 -10.0408 2.44248
1 -4.76637 -0.107135 -19.1547
1 -8.4884 28.9901 6.04261
1 -2.07939 -3.88867 10.9916
1 27.5599 -25.4873 -6.49019
1 -25.3572 -7.84693 18.2784
1 10.9133 4.24946 -1.30664
1 4.50717 -19.0663 0.683588
1 -11.1092 -16.4381 0.158631
1 -5.52045 27.5192 -19.7856
1 1.47321 30.4391 10.3697
1 -20.9954 -9.52434 9.72985
1 -12.3896 -13.5075 3.56898
1 -11.6063 -2.78241 -10.522
1 -15.2349 -13.9543 0
1 1.26352 21.5109 7.80408
1 -13.5538 0.552058 4.43967
1 0.0254997 11.0515 3.13163
1 12.1065 13.8448 -25.1667
1 -21.1267 -4.39677 12.884
1 -1.59751 -17.3089 16.5414
1 28.6744 3.60623 -22.0368
1 -5.20321 -0.614369 0
1 17.0883 24.1953 16.0981
1 2.85676 -16.9814 -5.87324
1 -7.35902 3.36751 6.80613
1 10.4753 21.0127 -21.1204
1 20.9062 5.25931 8.05252
1 -13.612 19.1084 9.67484
1 -11.499 2.46162 3.13341
1 2.35046 -8.27044 -15.198
1 3.66385 -9.40229 11.6977
1 -24.161 -33.5802 12.5644
1 1.81875 0.644664 -11.2465
1 -0.195393 -19.699 3.85859
1 12.4951 14.1282 -12.1612
1 2.64788 4.70918 14.9141
1 -20.6332 21.9846 -5.40693
1 -0.0946594 -6.9719 -24.0677
1 -1.71539 3.65296 0
1 23.8084 -0.27549 -17.6021
1 1.58317 4.14865 -13.0177
1 -8.27301 29.0518 -4.68716
1 -5.00023 0 -3.40426
1 3.26365 -13.8908 -18.4883
1 -29.6163 2.45588 -26.2149
1 10.0237 5.61937 -5.71161
1 18.0959 27.1719 5.43125
1 0.984235 17.5349 4.2432
1 -6.58346 3.35282 -2.17531
1 -26.658 22.4541 -20.6759
1 17.6785 -20.0943 -14.7631
1 -4.60715 2.52163 10.8327
1 17.7517 18.3209 1.58504
1 -2.40234 -8.81355 21.8766
1 12.5665 -1.60444 13.1515
1 -27.6186 1.66354 -3.96354
1 5.24472 -3.62835 13.6757
1 -5.00428 -0.40551 7.69521
1 -11.3736 3.43342 4.59817
1 -11.0598 -13.9244 3.42242
1 21.229 -13.3483 23.5634
1 -8.16849 -6.0117 9.47394
1 7.00483 8.69197 1.8064
1 -22.3556 -0.869007 1.9772
1 0.579884 -19.5243 25.1913
1 13.7179 8.91531 -2.37384
1 1.72844 19.0317 -1.73085
1 -13.0471 10.7299 20.1644
1 -17.704 2.23686 27.5602
1 -0.288292 -3.16197 6.03943
1 0 4.23716 7.3921
1 -13.688 5.40967 17.9791
1 -2.24191 -16.328 -3.76186
1 -6.95106 -0.281231 -8.01928
1 3.27414 -25.4358 12.5257
1 -32.0938 -3.59704 -5.62803
1 7.95113 -0.843549 26.8873
1 -3.10198 21.446 -17.8879
1 -31.059 -13.577 -39.9948
1 -1.03598 -3.30614 1.51525
1 -0.657098 10.5535 -17.621
1 -1.43973 24.5769 27.9974
1 -20.4582 -6.9762 -1.05412
1 -7.83147 -4.13613 -12.2036
1 -0.781449 -4.56457 -9.63517
1 -4.62873 9.49839 6.31855
1 1.79545 -0.329146 -18.1886
1 -27.2378 3.71859 -13.4157
1 -1.24826 -2.49301 10.8268
1 17.198 -5.95007 -1.26203
1 -31.0868 3.63522 3.51554
1 -0.550567 20.8578 -10.9866
1 20.7554 1.52681 -19.4127
1 9.88429 10.3715 -15.9928
1 -5.66768 1.02803 -6.37515
1 -15.8917 1.78032 -7.06843
1 -1.39611 -1.92722 -0.690163
1 7.73464 13.9499 2.91925
1 -15.6827 17.3382 8.84546
1 -0.339915 1.00942 -12.4429
1 1.90658 -7.70179 -13.2423
1 -17.9336 0.129311 -16.9099
1 10.3253 -25.3265 -25.4679
1 -12.2828 5.23526 -2.90165
1 0.410433 23.8704 -0.0173769
1 19.3226 -18.046 0
1 25.681 -2.71688 2.12167
1 -10.1074 -1.60005 -12.2069
1 3.26342 -17.3623 1.04766
1 -0.216747 6.82091 20.4775
1 2.26542 -7.48705 20.9437
1 2.36098 3.23282 -8.12455
1 -21.2466 -0.979019 -2.52613
1 0.119675 -8.30232 12.1104
1 -12.1387 3.65076 -4.89719
1 4.96401 -5.50109 -9.74718
1 -0.502144 -14.0477 24.9374
1 8.91851 6.66428 -6.8625
1 24.0966 -16.1184 27.9536
1 -5.97992 1.11324 13.2929
1 -3.12244 24.0615 6.49971
1 27.803 -7.67261 7.53384
1 -2.38451 0.513839 -10.6849
1 -36.3561 7.50627 -14.1824
1 -9.17955 9.53311 -3.75497
1 8.31234 -9.65748 11.2835
1 -30.5492 15.267 -4.43391
1 -27.6159 13.0143 -8.47284
1 7.19011 -2.23053 -0.0437266
1 -22.3465 -20.7862 -6.34718
1 -6.81092 27.9013 -3.87995
1 -1.62338 12.3118 19.5816
1 38.0437 5.93499 6.6592
1 -7.83706 -25.8778 -8.84893
1 -33.8131 -16.713 -4.71285
1 -23.6258 16.9181 -18.0164
1 -3.09587 -8.23553 3.89329
1 15.616 10.975 -12.2615
1 -1.75534 -11.981 3.57939
1 16.9512 -8.85427 -8.83071
1 -2.22381 12.0298 29.5843
1 -6.07667 -8.21727 1.03876
1 -2.02786 6.17683 -8.29253
1 9.47874 -0.791383 -1.45707
1 14.2078 -1.39199 -16.0122
1 2.79642 -20.1868 -3.74357
1 -10.3291 2.7404 -16.2467
1 11.8729 -2.70247 13.5614
1 2.7103 -0.487345 26.1757
1 13.0357 -1.90207 8.26067
1 -1.06901 -24.5259 -7.40942
1 0.738414 -2.86034 -3.4042
1 12.7258 28.9087 17.9906
1 -1.41676 19.4861 19.0113
1 -8.94906 10.3198 5.77488
1 1.2521 -28.9248 -8.06233
1 -12.7289 -7.43881 -7.81582
1 -0.694937 3.01481 1.5766
1 -2.30755 11.9995 -2.35898
1 15.6925 -20.6155 -7.08762
1 -2.21494 -4.11619 -0.829924
1 -4.39378 -17.6247 -2.14334
1 -26.4954 -35.742 3.4551
1 0.96549 19.5156 -5.31066
1 5.88875 1.11765 -27.7124
1 8.95101 13.722 9.50324
1 17.6345 -22.1635 3.49405
1 -4.30403 24.9135 7.80567
1 -11.6397 -8.20256 21.56
1 10.3081 20.4055 -3.62694
1 0.565666 0.718646 -32.1024
1 -14.1045 -3.25642 26.5487
1 4.50939 -17.3234 7.00299
1 13.6208 -5.63561 5.44464
1 -28.9606 -7.61009 2.9606
1 18.2459 -0.972705 3.59941
1 25.2288 -3.07954 14.2772
1 -8.17745 1.86227 26.934
1 -19.4315 -5.76123 -20.5328
1 -11.7064 0.396552 17.3118
1 10.9589 26.9819 8.989
1 7.22808 0.127413 -4.59836
1 -2.51285 28.9155 5.5688
1 0.561058 -3.67964 10.7845
1 0.0415797 22.164 19.1149
1 -3.38588 11.9229 -4.256
1 -16.1547 11.7382 14.714
1 1.35827 -3.04547 -0.157869
1 4.99722 11.2218 -2.32625
1 13.9143 10.0761 2.42563
1 -1.68261 -12.4212 -24.2426
1 -5.44314 -9.10483 30.9007
1 0.839917 -9.16595 3.56611
1 0.748281 -2.94429 3.12304
1 38.8851 -20.0194 -2.00864
1 -16.1809 -11.8088 22.1526
1 12.7082 -13.2156 -17.6622
1 3.99138 20.5008 0
1 -2.61991 2.35972 -9.51164
1 9.34478 2.23045 -19.4389
1 -10.2047 -7.77895 -4.18018
1 -17.9563 -5.28624 -2.68022
1 -22.0401 0.930247 1.57286
1 -33.3162 22.9951 2.69302
1 -28.2231 -13.5257 9.99697
1 -6.51272 -1.51675 3.70502
1 3.92507 -23.2785 -8.74335
1 11.4041 21.1534 26.489
1 -7.15922 -24.1037 13.721
1 -13.2261 13.929 5.97494
1 1.65288 1.7158 -23.8886
1 -0.785958 -4.6438 -6.70833
1 -12.6953 8.27691 2.17249
1 -1.25371 16.8287 -5.67867
1 13.8562 7.92246 4.50081
1 -29.5025 12.7545 -4.10706
1 -19.0031 4.19826 0.323144
1 26.3194 21.5153 -0.8799
1 -21.9772 4.52334 -0.893076
1 34.6849 -20.7467 -5.19
1 3.86057 12.8245 0.576358
1 -16.5825 -5.49161 3.04472
1 -7.19306 7.4728 -10.3282
1 25.8158 6.17773 13.4042
1 5.15795 30.8702 -4.16688
1 4.06159 16.9455 11.4124
1 -3.93541 2.98809 -7.21745
1 -2.83793 -7.49797 25.9178
1 11.5137 5.69435 -7.58144
1 4.09957 -5.14296 0.830696
1 4.94788 -10.6221 0.837058
1 -7.519 6.10036 20.2634
1 -1.68962 10.3922 -11.9341
1 14.9708 -5.47127 20.4779
1 19.7475 3.88003 -16.6922
1 -2.99855 -12.0296 5.98797
1 -0.197508 -24.5459 3.27104
1 8.77023 27.2139 10.3227
1 2.28503 -11.3235 -7.86845
1 -3.98562 0.451639 -2.39925
1 -14.5889 20.6777 -13.4128
1 0 -7.03629 -0.216741
1 -2.86811 4.05105 -4.19112
1 15.537 5.11573 -26.9668
1 -32.6178 -22.8696 0
1 2.01349 8.85997 -12.6358
1 -5.68308 2.96177 16.3957
1 -1.16396 -29.0707 -1.68906
1 16.8788 -2.82498 2.5706
1 -5.69843 -6.72045 0.247566
1 -7.67565 -0.404851 4.45278
1 -1.28023 30.9246 -22.1048
1 3.6982 -0.985982 -22.6568
1 -17.8304 4.32355 -12.2803
2 1.4095 -1.88685 -21.2132
2 2.2812 -35.3093 1.34019
2 -11.5477 -1.95012 16.3979
2 -13.7727 13.8021 -27.5793
2 15.5252 0.325611 19.3738
2 -20.465 -1.01968 -0.14075
2 1.65192 -3.11246 3.44191
2 -16.7697 -1.77417 -17.567
2 20.168 23.8233 -4.57829
2 -2.57546 -33.9508 -1.5366
2 -16.0003 -1.88078 34.4129
2 -4.33305 -27.3814 -3.94141
2 2.8701 6.67859 19.7682
2 -23.6048 -9.24259 -14.7564
2 17.0445 6.40782 21.8471
2 -19.8189 2.29991 2.10928
2 27.2156 8.63085 -4.4663
2 25.5619 1.17595 -1.22297
2 -5.78328 -21.6068 -8.41641
2 -2.0262 -7.16151 0.705091
2 0 -5.39371 -7.89663
2 0.751914 7.54274 32.7531
2 0.883943 8.87226 1.7103
2 -3.34934 9.25207 -24.5695
2 20.5008 3.26569 -20.7917
2 1.91051 -22.224 -14.9886
2 -6.87891 16.4279 -8.3953
2 16.1364 27.5271 -12.5497
2 5.59391 3.78016 11.4631
2 -8.25365 -28.6299 20.9356
2 0.667394 -10.6213 -10.48
2 14.7052 5.0332 11.851
2 12.6488 -2.89381 6.67693
2 -8.47345 3.25062 -4.91566
2 -0.748435 10.973 7.40296
2 -8.09999 -19.0995 -2.32066
2 4.40557 4.94035 -25.0224
2 -1.06825 -5.31967 1.20686
2 -12.9429 12.8666 2.21728
2 12.1726 -6.46395 -22.7156
2 1.79775 -1.2238 3.52365
2 0.556896 12.167 -0.448712
2 8.71514 -1.89414 1.15545
2 14.7031 9.70724 -11.0441
2 13.2839 -0.414497 30.2541
2 3.65676 32.1416 -17.2164
2 -4.98796 -5.56246 -5.20583
2 -0.777207 1.9153 5.13229
2 10.9775 -4.52308 -11.5567
2 1.3871 9.03698 -0.884148
2 -9.91205 8.24937 -7.35996
2 -15.8372 1.58751 -5.13212
2 18.2908 4.14705 6.22341
2 7.90985 -19.1665 -2.91659
2 -29.2814 1.55174 -27.714
2 -3.33456 19.4937 8.7462
2 -17.405 29.9975 20.443
2 -0.432463 7.95071 2.39693
2 1.71809 -6.32713 13.3014
2 -8.41829 -0.573652 -0.280551
2 24.7654 -7.04053 1.31309
2 -21.7678 -17.9281 17.2052
2 0.651165 8.28796 -19.5653
2 -0.356057 13.1263 7.16583
2 34.3386 -30.9743 1.39672
2 -21.5471 -18.6243 -5.9026
2 1.79977 2.11577 -13.5157
2 8.74228 -1.45108 4.35543
2 2.95119 -14.3607 -4.01325
2 -2.38351 23.0864 9.05851
2 5.87308 21.1225 -7.59342
2 1.20561 -1.3393 2.41062
2 -2.1699 0.580785 -28.1672
2 -13.1472 -28.7435 5.66463
2 -15.7326 -21.0114 -0.0956773
2 1.94151 -8.88474 -22.7468
2 -9.32208 2.70809 11.0725
2 12.5832 1.91933 -1.54638
2 -4.84475 12.9565 4.46278
2 0.600425 2.26925 3.61285
2 20.6352 5.70375 -25.4139
2 -29.106 -12.2484 -23.2977
2 3.58807 -5.47459 -9.54862
2 -6.28741 0.179527 -9.64661
2 -15.8528 -1.18863 30.7605
2 10.4514 29.5902 10.6428
2 0.07913 -15.0404 14.3491
2 -1.01223 -3.62423 -2.33348
2 25.6231 16.2688 1.95862
2 -23.55 -11.7129 2.23031
2 12.3483 -0.322805 -2.70894
2 1.04183 0.418625 24.7564
2 -8.30176 -7.56757 -0.702095
2 -10.2265 10.1916 -7.50725
2 17.4618 -20.4552 -10.6878
2 24.5034 0.851819 -3.75082
2 9.66858 -33.1502 11.0494
2 -2.86135 2.63222 -8.71847
2 -17.6387 29.2455 24.6189
2 -18.9532 7.9823 -0.232656
2 -31.1566 -1.68902 29.6559
2 9.0594 -25.459 -8.31698
2 33.4718 13.0223 20.5685
2 -1.00975 6.20057 -7.38099
2 -6.12571 -26.3808 -23.7912
2 6.13612 19.9917 -14.0598
2 1.53329 -23.463 -5.14865
2 -29.1931 -23.7074 0.70339
2 -26.0492 -18.4638 -6.85405
2 -18.2442 23.9114 2.66049
2 -10.5246 -0.929779 -20.2503
2 3.10259 2.17336 -15.2012
2 10.0861 7.38458 0.920478
2 3.79732 15.6051 -2.63092
2 3.96768 20.8472 -22.5881
2 -2.85517 16.6005 21.7328
2 -11.3912 -8.3204 26.3417
2 -0.38229 15.14 -6.3664
2 -11.7785 -2.13379 -4.12164
2 21.1364 5.80828 -6.79544
2 6.30194 3.25428 -8.6929
2 18.5454 -4.96484 6.45095
2 -0.117326 2.02416 -32.3997
2 -25.9243 -3.5371 -7.70635
2 5.39421 30.915 2.61057
2 -2.17284 2.82831 -2.84687
2 14.4114 1.52607 -1.305
2 1.61366 -8.50133 1.09655
2 5.84592 -5.65548 -0.87126
2 5.66491 1.80575 11.648
2 0.974483 -2.2895 8.6381
2 -3.44643 15.7173 -9.68404
2 -5.89885 -0.31625 -10.1686
2 3.90141 10.8063 -3.63672
2 16.6195 24.2468 -6.13596
2 13.9075 -13.9841 -21.4535
2 -18.111 13.3244 8.65475
2 -26.6165 20.1883 2.95066
2 -5.36261 -2.3684 -1.37614
2 -6.673 -10.9271 -2.97932
2 3.10838 3.13305 -6.0408
2 -12.4493 34.8948 7.65555
2 -37.9039 -7.30715 1.06312
2 0.619961 1.2981 -26.5349
2 -6.40584 0.986257 1.9526
2 -2.81446 -10.9341 0.278389
2 0 23.7637 14.5062
2 -34.0141 4.43411 6.87585
2 9.14844 12.188 -11.1449
2 -14.0051 -1.64906 15.7247
2 -25.3731 -2.74413 1.68297
2 -19.4726 32.0917 -15.0749
2 -2.69951 10.0521 0.785203
2 8.03837 -1.30118 -7.48861
2 11.8117 4.17114 15.3644
2 -13.8756 -2.83064 23.8918
2 -12.9176 27.543 -11.2911
2 1.01069 28.7946 -5.1719
2 5.39484 -6.49936 -21.9275
2 -9.31834 -4.49576 24.1635
2 13.4382 -11.2246 -18.7596
2 -13.7855 -6.90998 -2.32797
2 -7.37578 -2.43584 -7.00569
2 4.57461 -3.22333 -1.39889
2 -17.7306 4.21491 -2.97167
2 -1.2985 -1.68002 -2.0211
2 1.73827 -0.493557 -0.224538
2 0.284759 9.48807 29.9133
2 -23.4008 -24.9203 11.8443
2 -0.9649 7.66424 -1.31334
2 1.81263 19.6748 8.53604
2 16.8277 24.4871 9.31942
2 16.7678 16.7179 0
2 25.3146 -3.86317 20.8657
2 -16.0024 -21.841 0.96865
2 4.83978 -1.28252 10.7548
2 19.3913 3.30474 4.89926
2 -19.9745 2.27563 -10.7548
2 31.9908 30.7182 5.67628
2 -19.0507 10.8451 -35.49
2 1.20835 -18.0143 14.8647
2 22.3839 0.584264 -8.54012
2 1.21522 0.984894 -21.2329
2 3.76765 -4.48091 -4.53493
2 -14.8056 7.85189 -17.9327
2 11.7255 5.59619 -13.8017
2 -15.3574 -33.0826 16.7744
2 -7.10821 7.20379 15.5107
2 22.0756 -1.99084 13.651
2 25.9335 -23.8945 6.58186
2 -10.6975 -14.5757 6.085
2 -0.314537 0.251195 -2.5242
2 2.78655 -2.18789 -15.2393
2 -0.635838 15.0037 8.80487
2 -7.48742 11.7792 -3.43486
2 27.2468 3.74583 16.993
2 -5.78629 -0.376076 -9.78307
2 2.48502 -3.23221 -9.98159
2 -7.95379 0.254062 30.6211
2 11.7285 2.40402 -1.28082
2 4.22677 0.931741 9.92664
2 -2.88149 1.93398 26.8741
2 -24.436 10.8496 -21.6345
2 4.26738 19.3395 23.4345
2 -6.13846 17.9042 -11.8357
2 -11.3651 -17.452 22.7083
2 8.7226 2.74092 2.35647
2 -0.40798 -4.38116 -8.43541
2 -14.3426 -13.1527 12.2246
2 -7.66382 -13.8998 6.21639
2 4.60895 5.48481 -8.14419
2 1.45479 32.3238 -1.47303
2 20.9963 5.09943 -11.0689
2 -7.81855 -27.0699 -30.0355
2 -4.6778 1.81727 -4.13202
2 -2.13633 -7.48681 -17.6614
2 23.9586 4.13816 -16.851
2 -12.6676 9.13224 -5.87419
2 -29.9209 9.77051 6.12049
2 -3.798 -4.77804 11.5016
2 1.86775 7.19096 7.70775
2 7.31289 -4.80523 -30.7627
2 -13.331 -10.8857 -0.654755
2 9.58954 1.01622 -10.661
2 0 -25.7719 10.8657
2 -0.906457 -2.37917 4.00437
2 0.0566667 -10.5944 -3.33366
2 -17.5927 -7.43294 -23.7747
2 -6.62597 -1.07858 1.67869
2 14.1056 -2.6373 0.381609
2 28.969 21.5285 -22.6099
2 -12.7291 -6.88104 -4.48765
2 4.5024 -6.99764 -7.03023
2 -19.9211 -4.13368 12.4058
2 -11.4782 10.157 19.156
2 -12.6086 -1.18195 3.17174
2 -15.2067 15.6384 0.672589
2 -6.79728 -12.882 -0.886288
2 4.55112 1.35429 6.9243
2 -15.0027 0.322918 3.83228
2 24.0136 6.88199 0.700787
2 6.75534 -6.40698 24.2164
2 4.67621 -18.999 11.8097
2 -8.48409 -2.14319 4.41456
2 4.10878 -3.84727 1.14914
2 17.4382 -12.248 1.66293
2 -3.91106 -3.84703 -17.7043
2 -7.12055 -7.9328 -2.84409
2 5.89036 16.7578 -13.0254
2 -9.53332 4.10416 24.6388
2 -0.241591 -3.31184 -0.366291
2 -16.9198 2.97808 -13.9793
2 -15.2833 14.3275 -21.0145
2 -8.4014 -4.60701 -7.5917
2 10.5027 -2.28099 -26.8021
2 0.215874 14.1977 -5.3084
2 -4.6806 6.35338 -2.84174
2 12.2535 -3.55379 2.18516
2 2.44183 -10.7913 -16.2568
2 15.4268 -4.46899 -25.3873
2 5.66619 8.37402 -4.90816
2 0.044849 -19.8886 27.1271
2 17.2999 -1.65677 19.9738
2 -0.642636 24.3384 -2.67173
2 -28.4449 -8.54571 -18.377
2 -1.02813 -14.5172 17.2755
2 -0.860006 -16.8233 -20.7807
2 -24.1677 -9.765 -4.91129
2 -6.78589 -4.36805 14.4656
2 -0.352086 -27.2084 33.9371
2 -19.2334 -5.1449 1.95841
2 8.70213 -0.0965437 10.3729
2 -25.7929 4.21457 11.3222
2 -1.0908 6.00997 0.904652
2 -2.88605 -7.01949 -2.70841
2 -2.39935 -16.1054 -0.870454
2 11.0315 7.70537 -11.4885
2 16.3043 11.2827 1.15251
2 7.23425 -16.0812 10.7954
2 2.64338 -1.15138 -24.282
2 -7.26268 -18.0825 0.297604
2 31.5498 3.18547 9.6313
2 7.36803 3.92739 4.8725
2 -5.3927 -7.91328 -20.29
2 -2.72292 6.83776 -9.73552
2 7.14378 8.13908 2.07189
2 26.8639 -7.63225 26.444
2 -0.462779 11.9579 -0.454494
2 -28.4874 -1.84711 -2.53626
2 -21.8048 -1.81915 10.3399
2 0.77741 10.9949 21.5917
2 5.8097 -4.72271 -12.2473
2 -28.3752 -13.6744 0
2 13.2724 22.5657 10.6315
2 16.9341 -17.2456 -1.67594
2 -22.7948 -3.41012 -24.5577
2 1.48085 -12.9756 -10.703
2 12.9896 4.92212 -20.2419
2 5.98152 -6.97309 4.78947
2 -24.343 -4.10961 -21.7586
2 5.57445 6.14396 3.38626
2 7.33264 -2.99211 -1.12364
2 2.14655 10.9209 -16.5736
2 -0.383641 15.4682 -11.4266
2 6.08957 -20.5339 28.0854
2 -11.3946 5.33065 -6.39303
2 5.54508 -12.942 -3.722
2 -5.36793 11.7634 -23.6614
2 11.4395 -6.18663 -1.73422
2 -0.189031 0.772749 4.96818
2 35.203 -12.2351 4.85949
2 4.95453 23.682 36.7018
2 -14.4244 8.05416 -0.154947
2 -0.734433 0.620175 -6.48432
2 1.58047 -12.5376 3.9702
2 2.81815 -19.8879 20.7336
2 -0.292371 11.6322 -0.572889
2 0.037984 10.897 13.1349
2 -1.19699 -0.0682974 8.03394
2 3.63433 0.495359 -4.84583
2 -4.64785 14.4555 14.9465
2 5.27009 16.754 5.09204
2 21.8467 -21.3351 3.39616
2 -1.83489 -27.0821 6.85513
2 0.61826 0 -2.92441
2 14.0507 21.31 -19.2986
2 -3.86452 1.63561 -1.6
2 0.942885 8.51803 -6.42109
2 -16.7283 -5.3479 -11.8836
2 4.66777 9.19166 -15.3432
2 -16.4158 -7.61487 23.3434
2 -1.91297 9.31221 4.71208
2 -15.4602 7.46272 -7.34294
2 -0.49605 -17.3938 -0.448201
2 -15.7891 -14.7375 18.6839
2 -10.4109 5.9864 -25.8338
2 17.0337 2.32649 -38.0901
2 -11.363 -10.5222 -3.03715
2 6.49589 9.10741 -11.9531
2 -30.9413 -16.4734 -11.297
2 26.4088 4.47343 7.90823
2 -8.24718 -0.989171 -31.5596
2 20.069 7.04389 -1.96738
2 -5.66401 1.20805 -12.9132
2 1.71245 1.51831 -12.6433
2 35.9686 -10.9127 -0.955638
2 0.858813 -13.1826 -3.26027
2 -14.9509 11.1056 -0.4941
2 0.591267 14.0062 -11.9489
2 -11.1951 6.27915 0.537161
2 11.4163 -0.279195 -20.2732
2 0.796334 -12.8809 -17.9103
2 18.7826 -0.390616 15.016
2 28.8934 -19.9784 -2.966
2 0.821274 -0.734503 25.9948
2 14.8382 -13.8015 10.1513
2 -7.79839 -20.9967 -22.9574
2 9.00051 0 -19.0151
2 23.6952 8.63621 -0.424928
2 14.1014 -5.6004 -21.7481
720
Atoms. Timestep: 5000
1 -22.8193 0.149904 -0.988991
1 1.32438 -16.8527 8.49404
1 -2.80735 -31.0483 29.8819
1 -0.0267552 3.79988 -5.93695
1 10.3051 -6.86655 13.3273
1 4.62493 -20.7868 22.5317
1 -19.8525 -2.29814 -23.9597
1 -28.7843 18.781 -27.9588
1 16.7223 10.5913 -1.01421
1 -5.63491 -26.8788 -6.40302
1 -1.18035 16.6353 7.33452
1 1.42479 7.90908 17.138
1 -12.9273 -1.46112 14.7172
1 4.1207 -0.575049 7.4723
1 -3.52754 5.0563 -1.79075
1 8.51571 -2.15364 -20.1441
1 -4.28294 13.0817 4.12475
1 1.11694 15.1793 -1.52877
1 6.7707 -21.1008 32.1904
1 -18.6244 7.63409 -17.9017
1 4.30604 1.91322 2.15319
1 27.6497 -18.495 -2.75285
1 0.768209 9.84497 19.6145
1 -30.1877 -13.2344 -0.440514
1 -24.737 -3.75679 -6.00172
1 -14.2432 -1.51694 3.38788
1 -2.27555 12.0553 -6.624
1 4.73295 8.53552 1.84161
1 24.4407 3.1552 -0.413223
1 8.81331 -4.30691 14.2019
1 4.5328 -21.2902 29.2588
1 8.56424 25.1466 6.48728
1 8.02286 2.61056 4.46934
1 15.9856 -0.463798 -12.6283
1 2.07785 -5.62517 9.6435
1 -2.25616 6.11009 -5.09889
1 -9.40986 -23.8374 16.9482
1 -8.62708 -2.20911 15.5801
1 9.36508 18.627 -20.4918
1 -2.16221 0.0272928 -15.3025
1 21.7712 15.444 5.6765
1 -7.58695 -21.2763 -18.1332
1 -4.68058 -11.2443 4.12557
1 38.3005 4.20908 32.874
1 -10.9773 -15.5745 23.5281
1 -0.631284 -32.0054 -13.6894
1 -8.50941 -25.0526 -6.64403
1 14.2451 -10.1819 -23.9518
1 -12.6904 1.82317 -1.94608
1 25.9712 -3.04146 17.1595
1 13.2118 3.35917 1.6875
1 -15.8719 4.78766 -2.79789
1 7.65619 -9.7611 -17.5505
1 27.1297 -14.4532 -21.1007
1 6.90518 10.4644 1.00237
1 10.4832 23.9558 -24.5575
1 5.91228 -5.74545 4.26551
1 1.16067 -8.42555 26.4611
1 2.73888 -2.02576 -13.2341
1 38.0487 -14.0529 -5.60469
1 0.357132 32.9081 -16.4517
1 -0.958937 -5.09054 -15.6316
1 14.3421 -11.9597 2.53803
1 -16.55 5.86791 -16.0085
1 8.78998 17.9459 32.3838
1 31.1416 -24.0603 5.88525
1 22.7626 -28.8049 -22.9489
1 28.6276 -1.53446 15.9907
1 -1.0632 -13.7988 -24.8288
1 3.95151 -7.19454 25.0793
1 -9.41092 -3.84639 10.7395
1 -10.6137 -0.0357975 26.0033
1 9.1717 -0.959736 27.831
1 -9.71575 4.06208 3.10284
1 11.1527 26.2967 -7.43203
1 10.5241 1.90141 -25.6394
1 -1.74956 0.292795 0.398461
1 -12.8492 -26.6271 -28.0822
1 -10.6056 19.8808 -23.7556
1 0.325407 -1.68234 -10.2453
1 -24.8367 -8.59337 -15.052
1 -3.12756 -19.4877 14.9632
1 -19.0668 -5.57767 12.48
1 -0.86326 12.6937 2.81957
1 12.6419 0.233128 -23.7025
1 11.0596 10.8195 11.5027
1 5.17147 5.15216 2.95112
1 -19.7146 2.02797 12.3552
1 4.77321 10.0096 10.2785
1 -9.35202 6.04774 -0.27885
1 -27.3328 -3.39268 -4.54014
1 -1.62932 13.7028 5.44662
1 -14.003 -0.543466 0.462591
1 3.70991 -22.5895 -3.78258
1 4.97161 2.9997 5.64871
1 -26.8571 19.8148 -25.2944
1 -8.7798 -5.20188 13.3575
1 1.70158 -15.5244 0.162442
1 0.611631 2.64003 -8.84683
1 2.48985 -20.2087 -1.77034
1 -7.56763 18.6775 -25.0806
1 -33.6797 11.3502 2.19243
1 1.06253 -0.351166 26.5914
1 -6.00905 32.4669 -26.7901
1 11.3319 1.33696 -8.80824
1 14.4368 -8.06567 2.59719
1 -0.593052 1.10456 -17.9774
1 -7.61414 28.6219 6.50014
1 -7.1758 -5.75949 10.5347
1 26.9076 -23.3084 -8.21495
1 -25.8558 -8.03803 22.4178
1 10.1213 1.86834 2.46511
1 1.49395 -20.9649 1.06599
1 -7.16142 -16.3977 0.170134
1 -5.03982 25.9603 -17.7104
1 0.939305 28.1227 11.7659
1 -16.6338 -7.32684 10.4685
1 -18.8306 -10.9852 -0.336594
1 -10.6776 -2.33061 -9.87123
1 -16.0203 -13.1519 0.289014
1 0.358602 19.4267 7.29657
1 -9.72788 1.138 4.34863
1 -1.22438 9.24477 1.2164
1 11.2947 11.5121 -26.147
1 -19.3895 -1.90968 12.6139
1 -1.63501 -19.751 11.7476
1 29.2753 1.85451 -22.6281
1 -4.50732 -4.77861 1.77291
1 16.8144 23.89 12.236
1 3.50429 -18.2135 0.486405
1 -7.01651 2.75925 3.88261
1 9.23004 20.8161 -23.2653
1 19.5901 4.37982 6.84685
1 -12.9807 20.4601 5.99446
1 -11.7473 -1.83484 4.34076
1 1.19653 -7.31583 -17.6366
1 4.02117 -6.9535 11.2587
1 -23.5623 -39.6574 10.7265
1 1.86096 0.706894 -12.0899
1 -4.36104 -16.7154 1.54098
1 10.8052 10.0123 -13.9089
1 3.43487 7.68597 14.0707
1 -20.1387 19.8772 -6.17853
1 -1.56127 -10.9011 -22.6614
1 -4.26728 2.25997 -1.57161
1 22.0603 3.95339 -16.5721
1 -1.23975 2.89338 -14.5011
1 -9.67273 29.597 -2.60462
1 -10.9027 -1.8847 -6.90089
1 4.50768 -8.80721 -18.6707
1 -37.2213 7.16499 -26.4719
1 10.1203 2.59738 -5.61593
1 17.6806 23.1155 9.20252
1 3.04458 14.8794 0.977097
1 -6.64801 4.42817 -2.09969
1 -25.5811 23.1204 -18.1136
1 14.8538 -19.8264 -6.96635
1 -8.24599 0.990948 11.6445
1 19.1489 15.2939 4.4626
1 -3.15289 -8.42077 25.7567
1 13.0504 8.54542 10.3945
1 -24.5796 -1.76889 -3.4977
1 7.74536 -6.96179 14.6758
1 -4.83907 1.62753 2.14772
1 -12.3729 5.00363 4.9515
1 -5.38545 -14.1508 3.9807
1 22.1416 -12.7019 24.4307
1 -9.95865 -6.80968 11.2473
1 3.6172 11.6885 1.37742
1 -23.2554 1.15666 5.75238
1 3.95886 -21.8545 25.8175
1 13.9807 10.3622 1.38388
1 2.43966 17.6935 -1.35277
1 -11.3254 8.4706 19.8598
1 -22.6993 6.7211 25.0386
1 -1.70581 1.79305 3.41072
1 0.85059 3.75238 4.2053
1 -12.5689 10.516 17.3232
1 -1.44549 -15.8349 -0.270358
1 -8.16292 -0.932383 -8.68142
1 6.12536 -27.2547 10.7536
1 -33.9153 -2.70334 -7.02319
1 8.77461 -2.25206 24.5761
1 -4.06514 19.7367 -13.6153
1 -29.9424 -12.8989 -39.4529
1 -2.37727 -2.90818 -0.209337
1 -1.78268 13.2473 -17.3677
1 2.65124 23.7319 28.4674
1 -19.5411 -7.54508 -0.691369
1 -1.69415 -2.44652 -13.1968
1 2.32465 -3.70104 -9.84549
1 -2.397 10.6069 3.98841
1 5.91968 -0.404873 -18.1134
1 -33.6821 3.69049 -11.39
1 1.38703 0.713957 4.88515
1 15.5726 -6.23336 0.43207
1 -33.1408 7.65757 2.36702
1 -1.63038 17.3968 -12.2449
1 17.8965 -0.00112504 -20.2926
1 8.39899 7.25501 -14.5544
1 -6.22613 1.45597 -8.06753
1 -11.9201 0.255198 -4.31843
1 0.101917 -1.18079 -1.52617
1 5.56467 10.9815 3.49437
1 -13.5756 17.068 5.53571
1 -1.84147 0.907971 -12.3928
1 2.80739 -7.33903 -10.9407
1 -20.8302 -2.80296 -17.3486
1 11.7606 -26.6922 -25.0407
1 -10.7128 2.9128 -4.16629
1 2.52438 20.9193 -2.33158
1 16.7999 -20.795 -1.60736
1 24.9943 0.539372 1.32686
1 -11.12 0.305023 -8.95736
1 0.605623 -18.2926 -0.370705
1 -1.35499 7.52254 18.6268
1 0.613848 -7.46986 23.7615
1 2.93541 2.53661 -6.21443
1 -20.9466 -1.79824 -2.06971
1 1.34862 -6.54433 12.8308
1 -14.0658 2.82135 -4.22771
1 4.08346 -4.79354 -12.4181
1 -4.80523 -19.703 28.8176
1 7.63739 4.40672 -4.11199
1 22.7837 -15.1342 26.9149
1 -8.53013 -1.99623 12.7791
1 -0.662299 22.8028 8.13639
1 28.769 -5.8056 6.37129
1 2.03325 0.344381 -15.2983
1 -32.0238 8.4988 -19.5978
1 -4.29777 9.12288 -6.2435
1 7.52187 -7.59488 11.5524
1 -26.7717 15.101 -3.20935
1 -27.7864 13.873 -5.34019
1 3.61471 -1.17083 1.94077
1 -24.2965 -19.7822 -6.12669
1 -1.93819 19.8726 -1.78083
1 0.398443 12.9608 20.8995
1 37.8063 7.89409 9.83312
1 -2.84204 -26.3578 -7.53786
1 -31.2839 -15.9057 -2.19104
1 -21.7734 14.4039 -20.9334
1 -3.87652 -7.92782 3.46267
1 15.2494 10.5958 -12.6496
1 -1.8509 -10.4877 3.45175
1 16.5123 -14.0438 -6.68129
1 2.81776 7.49397 28.281
1 -3.11523 -13.7326 2.24647
1 -0.989761 5.57204 -8.23047
1 6.93159 0.161237 2.29247
1 16.8702 0.708951 -15.3021
1 -0.87555 -20.776 -0.801138
1 -15.7239 4.52202 -13.0131
1 10.1156 -5.75711 16.2719
1 -2.94055 0.727217 27.8619
1 12.6383 -2.80521 5.72907
1 0.339023 -22.4621 -3.48632
1 1.83272 -6.98604 1.06923
1 14.7237 31.5362 18.4113
1 -1.4118 16.0299 21.4216
1 -7.60382 14.1224 4.80711
1 -2.64894 -27.3558 -4.9387
1 -12.0878 -4.9464 -7.84221
1 2.79411 4.70526 0.950713
1 0.466803 11.3441 -0.334788
1 13.6889 -20.2491 -10.367
1 -1.49576 -5.75284 1.00379
1 -4.47498 -14.8363 -0.62441
1 -27.55 -38.5709 2.84612
1 0.962788 17.0514 -4.40503
1 7.25415 1.86141 -26.8642
1 12.9362 11.5143 8.74017
1 17.4645 -17.7705 -1.94351
1 -0.724645 20.8173 10.5349
1 -12.3178 -6.5018 19.4676
1 12.8669 22.809 -7.43725
1 -0.327052 3.84596 -33.6342
1 -13.653 -6.08517 22.8185
1 3.12606 -14.2884 7.01923
1 13.4898 -4.99753 2.88277
1 -29.3319 -9.70553 0.642905
1 16.0628 2.55105 3.94432
1 23.6485 -1.57436 15.2416
1 -9.16232 -2.11758 28.3345
1 -19.6496 -5.40264 -22.7348
1 -10.1193 0.38474 14.1735
1 7.19933 26.0173 9.44156
1 15.0244 -6.31749 -3.02819
1 -0.82387 26.0412 9.25599
1 3.86699 -4.62844 6.7111
1 -2.10349 19.4701 21.8227
1 -0.848928 13.2753 -4.04404
1 -17.7111 10.9044 18.1509
1 0.851183 -3.91079 0.329767
1 2.10613 8.83133 -0.05427
1 12.4376 7.59351 2.61082
1 -0.719339 -16.2151 -27.7098
1 -13.4792 -3.1949 24.7954
1 3.98256 -8.01645 3.52436
1 0.647484 2.16367 1.08519
1 38.4832 -16.6419 -4.25641
1 -24.5648 -8.26179 19.0149
1 11.0847 -10.3231 -17.8208
1 5.11366 19.6176 -0.947737
1 -1.27786 3.69923 -11.2266
1 12.1822 -2.5559 -21.9286
1 -13.2504 -6.75771 -5.07831
1 -17.5717 -4.74644 -1.77881
1 -19.1082 0.41446 -0.910814
1 -36.9287 25.0567 -1.49352
1 -28.0161 -14.4074 9.80939
1 -4.99194 -1.16538 1.15775
1 -0.227206 -24.7946 -5.64268
1 14.8454 19.1734 28.41
1 -7.07148 -23.3987 14.3096
1 -11.1868 14.7244 5.36489
1 0.726411 0.621207 -20.8995
1 0.687117 -2.2143 -6.82518
1 -11.0941 6.52377 1.98504
1 -0.580204 15.1599 -6.37849
1 10.2603 5.17176 3.70113
1 -26.8979 16.3645 -5.51824
1 -15.7181 1.51491 -1.40446
1 24.7056 16.691 4.08535
1 -17.8624 3.29211 -0.488939
1 27.6011 -20.54 -5.66654
1 2.05748 14.0368 3.77311
1 -15.5085 -3.165 0.467957
1 -5.19036 6.60671 -4.67299
1 28.4332 0.877957 13.2784
1 3.34895 34.2091 -7.22089
1 1.50448 16.4297 5.98016
1 -6.72696 3.54207 -4.94374
1 -1.03545 -6.8414 25.8076
1 9.13625 5.60772 -6.2053
1 2.90782 -5.21127 3.23998
1 6.18227 -7.47349 1.55891
1 -4.76182 6.82524 18.9893
1 -1.1305 10.6953 -13.8479
1 11.4433 -5.7114 19.4771
1 19.1099 2.08409 -17.7134
1 -2.6374 -9.30501 6.0209
1 0.518465 -23.4344 -0.487258
1 7.78823 28.4104 7.92392
1 0.385493 -10.0308 -11.3387
1 -0.642401 3.2681 -2.04124
1 -21.0215 19.3315 -9.70701
1 0.702861 -7.97709 3.69652
1 -2.75571 2.80941 -4.21239
1 15.257 -1.41302 -22.2906
1 -28.8665 -28.5701 0.169015
1 1.9528 10.4924 -10.9361
1 -7.31747 -0.100812 14.5663
1 -0.789721 -25.6069 -2.88499
1 13.5133 0.501794 2.98785
1 -7.71839 -5.69765 3.03289
1 -7.65417 1.29321 1.55042
1 -0.521542 36.1501 -16.7934
1 2.84875 0.628663 -18.2828
1 -13.3779 2.6028 -10.7411
2 4.54041 0.60492 -17.3508
2 -0.109436 -23.9829 -2.25886
2 -8.57974 -0.161664 13.1024
2 -4.95976 17.2199 -35.9622
2 10.4967 -4.74754 17.9658
2 -22.9869 -1.60891 -2.30608
2 12.5024 -3.88953 4.06993
2 -21.9399 -2.19105 -16.0298
2 23.3871 15.565 4.82443
2 -1.65759 -27.2619 -3.26618
2 -13.3864 0.526467 35.2586
2 -3.92919 -27.4714 -6.43218
2 0.196434 8.60068 18.309
2 -23.9228 -9.93349 -15.9514