272
Atoms. Timestep: 0
1 -4.05 -3.27358 -4.93337
1 -0.81 -3.27358 -4.93337
1 2.43 -3.27358 -4.93337
1 -2.43 -0.467654 -4.93337
1 0.81 -0.467654 -4.93337
1 4.05 -0.467654 -4.93337
1 -4.05 2.33827 -4.93337
1 -0.81 2.33827 -4.93337
1 2.43 2.33827 -4.93337
2 -4.05 -3.27358 -1.68337
1 -4.05 -3.27358 0.266633
2 -2.43 -2.33827 -4.28337
2 -0.81 -3.27358 -1.68337
1 -2.43 -2.33827 -2.33337
1 -0.81 -3.27358 0.266633
2 0.81 -2.33827 -4.28337
2 2.43 -3.27358 -1.68337
1 0.81 -2.33827 -2.33337
1 2.43 -3.27358 0.266633
2 4.05 -2.33827 -4.28337
1 4.05 -2.33827 -2.33337
2 -4.05 0.467654 -4.28337
2 -2.43 -0.467654 -1.68337
1 -4.05 0.467654 -2.33337
1 -2.43 -0.467654 0.266633
2 -0.81 0.467654 -4.28337
2 0.81 -0.467654 -1.68337
1 -0.81 0.467654 -2.33337
1 0.81 -0.467654 0.266633
2 2.43 0.467654 -4.28337
2 4.05 -0.467654 -1.68337
1 2.43 0.467654 -2.33337
1 4.05 -0.467654 0.266633
2 -4.05 2.33827 -1.68337
1 -4.05 2.33827 0.266633
2 -2.43 3.27358 -4.28337
2 -0.81 2.33827 -1.68337
1 -2.43 3.27358 -2.33337
1 -0.81 2.33827 0.266633
2 0.81 3.27358 -4.28337
2 2.43 2.33827 -1.68337
1 0.81 3.27358 -2.33337
1 2.43 2.33827 0.266633
2 4.05 3.27358 -4.28337
1 4.05 3.27358 -2.33337
2 -4.05 -3.27358 3.51663
2 -2.43 -2.33827 0.916633
2 -0.81 -3.27358 3.51663
1 -2.43 -2.33827 2.86663
2 0.81 -2.33827 0.916633
2 2.43 -3.27358 3.51663
1 0.81 -2.33827 2.86663
2 4.05 -2.33827 0.916633
1 4.05 -2.33827 2.86663
2 -4.05 0.467654 0.916633
2 -2.43 -0.467654 3.51663
1 -4.05 0.467654 2.86663
2 -0.81 0.467654 0.916633
2 0.81 -0.467654 3.51663
1 -0.81 0.467654 2.86663
2 2.43 0.467654 0.916633
2 4.05 -0.467654 3.51663
1 2.43 0.467654 2.86663
2 -4.05 2.33827 3.51663
2 -2.43 3.27358 0.916633
2 -0.81 2.33827 3.51663
1 -2.43 3.27358 2.86663
2 0.81 3.27358 0.916633
2 2.43 2.33827 3.51663
1 0.81 3.27358 2.86663
2 4.05 3.27358 0.916633
1 4.05 3.27358 2.86663
2 0.742621 -4.99508 16.3416
2 0.649575 -2.84322 83.5003
2 -3.60403 -4.34936 83.1618
2 0.759149 -2.13385 72.7151
2 2.26094 2.71637 16.5242
2 4.16317 -0.482866 83.2922
2 -4.40457 -2.22689 24.2281
2 3.7812 4.17388 56.3148
2 -4.88283 0.530028 59.478
2 -2.06637 4.59279 81.7362
2 -1.31853 1.97409 32.3064
2 -4.34276 -0.920575 38.9412
2 2.53557 3.0056 26.8091
2 3.33371 -2.6388 21.6639
2 -2.62966 -2.64064 17.8988
2 4.96718 -2.58221 72.5768
2 -0.0917213 -0.142035 34.9119
2 -0.307277 2.44904 72.3
2 -1.57015 -3.16355 44.6202
2 -1.22634 0.992273 39.7244
2 0.96477 0.806977 50.7492
2 0.342876 -3.17823 89.9372
2 0.283014 3.71055 76.0819
2 1.81013 3.27968 67.973
2 -0.298753 0.443969 6.50792
2 1.03852 3.97142 60.8019
2 2.03548 -0.129492 42.6357
2 -3.10497 3.46407 49.5862
2 -1.55779 0.315178 78.2234
2 4.04614 3.78892 21.4026
2 1.81395 -4.44379 47.0939
2 4.74678 3.35535 40.9184
2 4.34165 4.9761 64.53
2 3.6418 -0.16784 48.7147
2 3.64269 4.35069 6.9305
2 -2.47166 -2.62334 33.9702
2 4.27143 -2.09073 56.6068
2 2.04817 -0.321879 81.0289
2 3.24502 2.18591 78.9075
2 -1.03922 0.53922 25.0162
2 1.71086 3.91794 11.2279
2 4.7272 -1.78142 9.74693
2 -3.92209 3.14791 60.942
2 0.669699 2.38111 44.0821
2 0.00859472 -1.91353 66.1872
2 -4.81947 -3.14414 27.4585
2 -1.18936 -0.122637 75.2973
2 2.2909 1.55566 10.2199
2 3.00744 -4.55377 26.5232
2 1.73106 -1.92099 8.73507
2 2.72669 4.88643 52.694
2 1.8135 0.349515 62.4272
2 3.686 4.9868 13.3736
2 2.37262 -4.89888 84.4773
2 4.37612 -1.92034 24.937
2 3.85946 1.70803 76.4011
2 -4.89608 2.54729 64.9994
2 0.706747 -4.56925 56.8159
2 2.09321 1.43498 6.94959
2 4.82933 4.4187 74.3418
2 0.682715 -0.688144 29.7189
2 3.89591 4.71836 47.587
2 4.51669 1.48547 51.919
2 -1.81575 -3.01375 87.4206
2 0.0220299 3.96078 41.3945
2 3.37735 -2.24437 78.451
2 -3.08557 -4.46518 76.2866
2 1.37994 -3.39159 62.1184
2 4.87147 1.32875 18.8171
2 -1.58526 -3.19369 68.6259
2 -2.17706 2.43621 29.6407
2 3.14574 3.3588 71.5663
2 3.21506 -3.88367 16.2955
2 -1.85197 0.5581 52.6664
2 -2.8104 1.29628 6.7386
2 -0.955804 -4.52498 81.8095
2 0.103929 -0.17532 89.8503
2 -1.62068 2.77357 12.5988
2 -2.42023 0.844209 84.7715
2 -2.34341 -3.00188 14.5293
2 -1.98421 -0.140744 16.3686
2 4.94453 -0.42681 65.0642
2 1.06118 -3.34847 12.9374
2 -4.98481 1.35612 36.9953
2 -1.64772 -1.86433 40.9349
2 -0.882548 3.80826 27.6205
2 -1.6001 -4.99222 55.3426
2 4.07348 -3.27091 59.7023
2 2.34097 -4.63039 42.9016
2 0.241624 0.144599 11.8835
2 3.57387 0.722673 12.6075
2 -4.25016 -3.58439 60.8318
2 3.56302 -4.10223 70.8134
2 2.6647 4.53316 29.1512
2 -4.16015 -3.93073 10.9195
2 2.08252 1.31655 55.8691
2 -2.47662 3.31718 87.4012
2 -4.13767 4.48025 46.5324
2 -4.27861 3.58158 7.27516
2 -4.75971 3.10244 20.9747
1 3.95974 2.85263 37.5713
1 -4.73467 -1.69007 35.658
1 -2.3248 -4.50844 47.8598
1 4.85558 -1.89564 49.8734
1 -2.07482 -2.8897 83.4137
1 1.87389 1.04743 65.8819
1 -1.68652 2.11998 47.2404
1 1.11925 3.2207 21.8986
1 -0.91254 3.00196 60.2956
1 1.18414 1.74706 60.4034
1 -4.36188 4.11869 69.9278
1 -1.68619 -2.35924 11.1911
1 -4.86781 -1.6893 32.7709
1 0.682198 -2.71776 48.5212
1 4.52366 -3.80104 28.8917
1 -3.74988 1.48621 14.1744
1 1.96458 -1.86886 60.7267
1 -4.95685 -2.07909 77.2584
1 4.62726 -3.76454 32.8059
1 0.977867 1.9937 79.7093
1 3.39305 0.365575 38.5392
1 -1.89822 0.665316 48.1745
1 3.27062 2.78525 57.9654
1 2.04659 -3.59721 37.4359
1 2.00155 -2.06791 11.0933
1 3.43727 0.772099 25.776
1 2.11296 -2.37931 43.9504
1 4.0237 1.0338 72.5976
1 -4.65093 -2.72465 64.0808
1 2.10425 -4.65572 23.1873
1 -4.79071 0.940637 57.5811
1 0.631849 0.613797 8.50285
1 -3.71099 3.20146 53.3311
1 -4.78933 1.63008 87.5254
1 -1.1139 2.92726 19.5522
1 2.0706 -0.575776 19.7139
1 -1.70569 -4.34978 21.3764
1 1.81478 0.462118 21.6593
1 -1.35127 -2.294 71.4861
1 -4.03172 1.00034 9.1663
1 -2.19182 -1.90909 77.6463
1 1.65039 3.94177 69.9825
1 -0.558333 -2.00868 39.0275
1 -1.84779 -4.34679 41.4405
1 3.13421 1.50645 24.6882
1 4.85565 -2.44089 13.9272
1 -2.61152 -0.717843 89.5087
1 1.21002 4.53928 27.2448
1 -4.15217 1.15634 81.5568
1 -0.449152 -2.2085 37.0275
1 0.226212 1.25316 63.2922
1 4.69736 3.86432 32.4953
1 2.59867 -1.33454 23.3155
1 -0.793048 1.56615 28.6527
1 -0.226952 -3.24148 51.1347
1 -4.83284 2.67016 67.3063
1 3.72105 2.01973 67.4104
1 -1.08662 1.48851 7.95836
1 -0.138612 -0.0280564 19.2062
1 1.67269 1.28658 30.4419
1 1.54071 -3.64274 39.3227
1 -0.792592 0.437843 64.3636
1 -2.91964 2.23813 16.9937
1 4.89576 3.98548 15.5603
1 -3.57665 -4.74149 20.0919
1 -2.57395 2.33178 81.0621
1 1.58497 -0.29503 78.5166
1 -0.0984593 -2.97871 14.5897
1 -1.88141 -2.71533 49.8628
1 1.33938 -2.07411 14.8667
1 -4.74696 -1.19022 87.766
1 -3.33024 -2.01908 44.8639
1 2.35329 4.80383 78.8129
1 -0.302147 1.9477 23.4529
1 -0.755846 -3.75059 37.1031
1 2.56986 -1.54294 87.4802
1 3.65815 -4.75971 67.9333
1 4.67525 2.9608 80.0073
1 3.22923 -1.97881 43.1004
1 -3.04627 -3.36969 47.9961
1 -0.615962 -0.169554 14.5307
1 -1.36301 4.01651 58.111
1 -0.657451 -4.09688 25.1967
1 4.70181 2.75961 58.918
1 4.90502 4.54399 88.0278
1 1.18584 4.95972 46.6557
1 3.17824 -3.67207 79.9458
1 0.00274134 -0.342116 73.753
1 -4.39827 -2.08396 82.2122
1 0.603486 1.85737 87.0874
1 3.32488 -3.49098 34.2173
1 -1.25609 -1.7035 30.7727
1 -3.9536 0.976543 75.876
1 -0.520904 4.08939 24.494
1 3.7008 3.13988 34.6707
1 3.84515 -0.829421 28.1724
1 0.665101 -2.40276 34.5393
1 -3.05901 -3.5484 62.8659
1 -3.84425 -4.8972 89.4274
1 0.908367 -3.59635 86.7937
272
Atoms. Timestep: 100000
1 -3.39075 -0.119884 -0.160742
1 0.391434 -1.18223 0.064702
1 4.13842 -0.711333 0.833921
1 -0.925398 1.51004 -0.838756
1 2.19272 1.56934 0.348623
1 5.5899 2.38386 1.6996
1 -3.54843 3.3601 0.203153
1 0.117628 4.13888 0.452627
1 3.34626 4.52455 2.0693
2 -4.15346 -0.583563 1.70498
1 -4.17893 -1.13732 5.04584
2 -1.1794 -0.470818 -0.645334
2 -0.642047 -2.00532 1.75971
1 -2.44033 -1.27945 2.2593
1 -0.187865 -3.22751 3.15303
2 2.23251 -0.450545 0.52144
2 5.09743 -2.20617 1.85996
1 1.77796 -0.921255 2.43214
1 3.83985 -3.19521 3.00511
2 5.74715 0.418536 1.30136
1 6.8795 -0.968107 2.29389
2 -2.98795 1.78625 -0.691649
2 -1.89005 0.803116 2.68839
1 -3.97402 1.26369 2.69027
1 -1.90618 1.08791 4.88097
2 0.334451 2.27768 0.500164
2 1.46377 0.834634 3.17955
1 -0.213679 1.83952 2.39644
1 1.04928 0.797583 5.14599
2 3.45525 2.57915 1.42256
2 5.31279 1.90566 3.69006
1 3.27052 1.71197 3.41148
1 6.70439 0.938024 4.82798
2 -3.98626 3.16199 2.14381
1 -3.99951 2.67587 5.88801
2 -1.86171 4.43657 0.887373
2 -1.1083 5.20846 3.94832
1 -2.50737 4.4351 2.82914
1 -0.628682 4.00995 5.55439
2 1.5536 5.11505 1.48966
2 2.49011 5.08485 4.06905
1 0.738885 5.66259 3.1891
1 2.63369 3.95864 5.74209
2 5.22985 4.26162 2.49909
1 5.49801 3.75865 4.44487
2 -3.15549 -1.46089 6.7244
2 -2.81076 -2.14986 4.15225
2 0.0827257 -3.12053 5.14563
1 -1.50002 -2.16417 5.76897
2 1.80282 -2.72209 3.16942
2 4.00343 -2.7643 4.97754
1 1.99007 -2.44579 5.2543
2 6.86087 -1.0539 4.34689
1 5.42946 -1.68257 5.67521
2 -3.96828 0.95618 4.66724
2 -0.533638 -0.123052 5.87806
1 -2.9336 -0.0865779 8.07115
2 -0.403338 2.22966 4.47248
2 2.03336 -0.696485 6.4012
1 0.494891 -0.232739 7.86522
2 2.77067 1.96737 5.37859
2 5.5061 0.125306 6.42082
1 3.55635 0.639898 6.86989
2 -3.35393 1.90809 7.74337
2 -2.36116 3.67274 6.56982
2 -0.580829 2.62389 9.60183
1 -1.91906 3.37221 8.43455
2 1.00087 3.76569 6.8505
2 1.99008 1.20982 8.39281
1 1.08299 2.91587 8.59657
2 4.54038 4.40334 6.21608
1 5.97711 3.64501 7.29686
2 2.52017 1.23205 22.9346
2 -3.17958 -1.12447 73.3314
2 5.5448 2.50633 72.8652
2 1.58481 3.27621 67.354
2 2.096 6.17474 19.2907
2 -5.51386 -0.0116873 75.6692
2 -0.454858 3.34127 24.0575
2 1.39783 4.16187 50.7038
2 -1.66859 0.0834341 64.6256
2 -0.445442 3.61358 76.0443
2 3.44329 2.83403 33.9102
2 -3.49594 -0.666164 34.8392
2 4.65993 3.74903 27.1084
2 5.07845 3.39448 23.7713
2 -4.30223 3.38618 23.3729
2 0.804034 -1.16397 70.2227
2 -0.387311 1.66285 34.4041
2 1.39046 4.20217 68.2983
2 -3.42825 0.297037 44.0162
2 -1.9384 -0.958369 38.5119
2 -0.809777 -0.737672 45.6914
2 4.43596 2.18577 76.2051
2 2.02779 2.60743 74.4022
2 -5.96439 0.469517 68.4823
2 -1.05515 -0.43412 8.9779
2 6.00311 -1.45516 66.5202
2 -2.59993 -4.3419 39.7729
2 -4.25608 0.483215 47.4101
2 -1.15173 3.5896 72.9102
2 0.596619 5.46525 22.0774
2 -1.20443 -4.45303 45.9747
2 5.88774 5.69656 34.7135
2 -3.52625 2.57288 67.8393
2 -0.496756 4.02478 48.6612
2 -5.99746 2.83367 5.67432
2 -2.65033 1.83175 32.615
2 -4.80431 0.916234 62.6432
2 -2.17275 1.3031 75.3121
2 0.153821 0.139868 74.8432
2 2.38846 5.31315 25.1434
2 1.90852 6.09131 17.4698
2 0.261994 3.80285 15.0955
2 3.50706 1.02229 67.7242
2 -1.49879 2.03492 46.4511
2 -5.29556 -2.65257 69.0573
2 4.42627 0.589356 28.258
2 -0.874557 2.50305 69.889
2 0.239802 0.73121 12.0464
2 4.88408 -2.98808 28.9329
2 1.28164 0.732696 16.2767
2 -1.39824 6.32187 49.2508
2 -3.35634 -1.02187 66.8749
2 5.16367 4.98507 18.4647
2 5.93721 -0.625338 74.573
2 5.74927 1.60439 25.2819
2 2.10863 3.27037 71.5289
2 -0.438901 0.355121 68.013
2 6.42957 4.23595 66.2779
2 -0.158048 0.67931 13.2603
2 3.43818 -0.142441 72.996
2 0.53003 3.60657 32.7403
2 -1.85377 5.66477 46.1099
2 0.954968 1.11132 48.4734
2 2.92305 5.34522 75.8526
2 -5.23852 -3.91567 34.104
2 -4.10762 2.15789 71.1741
2 -1.76221 0.536825 71.9547
2 4.64865 4.59269 66.8441
2 6.92955 4.66198 21.0467
2 5.22343 -0.320948 70.6847
2 0.976541 6.08351 31.3853
2 4.57489 2.77088 69.595
2 3.66659 3.79074 20.7666
2 -3.62222 -2.44636 44.7941
2 -3.33126 0.71801 9.92008
2 -5.6289 -0.644806 72.07
2 4.37465 4.76327 78.8145
2 -4.11996 5.41419 18.4081
2 -4.22299 3.12606 74.1475
2 1.17413 2.79503 21.0184
2 -1.35054 -5.74816 19.7938
2 -2.93811 -0.344726 69.7254
2 3.71085 1.34549 19.4018
2 -5.80053 2.14202 34.4334
2 -2.33193 -2.49176 41.7365
2 3.12338 6.60363 28.5797
2 -3.884 4.07657 47.7986
2 -4.94318 1.34799 65.285
2 -2.97389 -5.31614 43.3558
2 -0.570451 4.59167 18.2454
2 1.93777 2.90466 17.9441
2 5.00238 1.50802 64.755
2 1.94969 -0.820067 69.6444
2 3.08222 3.36294 30.1727
2 -1.71015 2.49044 19.4537
2 6.56556 -5.05618 67.0579
2 6.60953 5.49421 76.2267
2 -4.85639 -5.86991 45.6692
2 6.86442 3.25265 8.90754
2 -2.42826 5.04051 22.3492
1 -4.56933 2.15177 32.8122
1 -4.86575 0.630766 35.3193
1 -4.26008 -4.22562 44.5672
1 -0.0349361 0.476316 47.0072
1 5.45293 0.314043 72.9241
1 -5.36313 -0.250048 66.4568
1 -3.87295 5.47395 46.3535
1 0.672587 2.21444 22.8607
1 4.5452 0.124295 66.2769
1 6.43378 -3.14956 67.5999
1 -1.51741 -0.416614 66.5574
1 0.293238 3.0053 19.2019
1 -1.2651 3.13976 32.9375
1 -1.66323 -2.54642 45.5847
1 4.15567 -4.72339 28.7967
1 -2.59639 4.11557 18.5882
1 -4.99192 2.8967 66.5313
1 -1.04656 -0.0230508 70.1223
1 1.52795 2.48346 34.0424
1 -2.06236 3.36416 74.668
1 -5.94229 4.20318 34.3964
1 -4.06642 -0.685596 45.8622
1 0.234517 5.58822 50.1034
1 -4.44261 -2.26339 34.3989
1 2.51742 0.932938 17.7977
1 5.39778 1.83542 27.0983
1 -1.7972 6.91492 44.7167
1 4.03904 2.83478 71.4827
1 -3.51689 -1.82905 68.673
1 4.08824 1.57225 24.1287
1 -3.48231 0.561733 64.0641
1 0.427756 1.84951 14.8559
1 0.960832 2.76587 49.4361
1 -5.46269 4.3429 75.0437
1 0.0492307 6.46397 18.6345
1 5.27884 4.17415 22.0327
1 -2.36683 3.33504 23.6719
1 1.91237 4.73864 20.875
1 3.68706 3.18588 67.929
1 -4.89385 1.76349 9.25183
1 -2.18019 2.65495 71.4937
1 5.17061 0.920589 69.0913
1 -2.2437 -2.36742 39.6984
1 -3.15572 -1.46172 43.1053
1 4.20169 4.35439 25.2708
1 3.9359 3.35015 18.7383
1 2.80607 5.45368 77.7617
1 3.67843 4.69527 28.8028
1 5.54666 0.572601 76.0611
1 -2.6393 -0.666344 36.6501
1 6.58916 1.35883 63.7007
1 5.15347 1.85833 34.2418
1 6.93183 2.72798 24.0568
1 2.07244 6.81811 30.1012
1 -1.4814 -5.81432 47.4966
1 -1.72351 2.14954 68.1734
1 -4.33948 1.3469 69.2276
1 -1.21234 0.924429 10.5365
1 -1.19444 6.14836 21.4786
1 1.37692 4.06231 30.9552
1 -2.67728 -4.42662 41.7082
1 6.86807 -1.19114 70.1811
1 -2.91081 6.95698 18.7421
1 3.73773 6.20069 18.2202
1 -4.28962 4.61645 21.7143
1 1.32803 4.1876 75.6559
1 -1.60271 -0.156441 73.8691
1 3.11328 1.82904 21.2214
1 -2.51281 4.74172 49.0544
1 -5.84835 4.88044 19.0148
1 4.80642 5.70505 75.4238
1 -1.94003 0.951764 44.8348
1 1.97118 0.71352 74.2691
1 0.830549 5.01421 23.9676
1 5.67495 5.68697 36.6075
1 -4.18968 1.40885 75.3386
1 3.30417 -0.802723 71.2274
1 -0.424921 1.49101 76.2696
1 6.67299 -5.55311 34.4515
1 -3.36348 2.22971 47.372
1 1.12317 4.38158 16.6251
1 6.01164 6.06572 66.8295
1 4.92348 -1.22491 28.1871
1 1.59124 0.664493 68.1315
1 -4.96401 -1.19647 74.1631
1 -0.943774 4.0092 46.6764
1 -3.69171 -0.191066 71.6151
1 0.8878 3.327 70.0749
1 -5.42914 2.80465 72.4889
1 5.95016 5.58794 78.011
1 3.13312 1.67446 29.2035
1 0.702757 5.46735 33.2081
1 0.76196 3.18787 73.0316
1 2.37104 6.25352 26.8381
1 4.24481 4.66967 34.2214
1 3.74646 2.72886 31.9119
1 -2.00057 0.399832 33.882
1 5.03567 3.17264 65.4048
1 4.35274 3.04873 77.816
1 4.05409 2.82126 74.2903
272
Atoms. Timestep: 200000
1 -0.797944 0.161951 0.975879
1 3.30242 -0.978996 0.90246
1 6.90596 -0.17414 1.47693
1 1.69879 1.75466 1.02913
1 5.01137 2.10846 1.68763
1 -4.87199 2.76496 3.01559
1 -0.4121 3.70969 1.61291
1 2.77137 4.63813 1.93297
1 5.5949 4.56843 3.80048
2 -1.93248 0.376389 2.58316
1 -1.34744 -1.02987 5.70415
2 1.31527 -0.136426 1.08379
2 2.87374 -1.91493 2.87208
1 1.21306 -0.846865 3.07685
1 3.26522 -3.41289 4.11845
2 4.94958 0.0263905 1.46469
2 -4.97751 -1.39087 2.67898
1 4.45203 -0.791461 3.58822
1 -5.83711 -2.37982 4.08347
2 -5.88865 1.74101 1.60894
1 -3.44249 -0.48112 3.45017
2 -0.284687 2.16301 0.565425
2 1.42765 1.25786 3.30344
1 -0.615783 1.47703 3.64954
1 0.423382 1.11967 6.51898
2 3.24812 2.85615 1.05997
2 4.28202 0.592578 4.89994
1 3.02532 2.12958 4.15605
1 3.64956 0.558411 6.67038
2 4.83102 2.60593 3.63503
2 -5.01756 1.34372 4.51835
1 6.07518 1.47292 5.11195
1 -3.24757 1.38183 5.68134
2 -0.779109 3.51402 3.89018
1 -1.40833 3.56637 5.88098
2 0.890251 4.97163 2.14305
2 1.77865 5.18124 5.69265
1 0.608188 4.91513 4.14087
1 1.94965 3.68445 7.10677
2 3.98157 5.53634 3.2364
2 5.16051 5.087 5.77073
1 3.41043 6.0659 5.08632
1 5.34868 3.79625 7.40787
2 -5.31965 4.4509 3.77015
1 -4.80043 4.7169 5.64456
2 -0.344511 -1.97055 7.40287
2 0.312057 -1.57361 4.71402
2 3.11812 -3.20338 6.05217
1 1.44733 -2.17505 6.43419
2 5.20297 -2.51025 4.36862
2 6.86468 -2.47483 6.14098
1 4.95583 -2.44386 6.49982
2 -3.30381 -0.583489 5.44527
1 -4.73326 -1.12752 6.60649
2 -1.15771 1.01436 5.52107
2 1.85329 -0.226759 7.37601
1 -0.450137 -1.37787 9.32724
2 2.2587 1.99026 5.9931
2 4.61476 -0.95912 7.83763
1 3.00316 -0.811993 9.30551
2 5.43111 1.74889 7.07773
2 -4.96716 -0.508014 8.49756
1 6.04187 0.457514 8.53034
2 -2.54351 2.29593 8.92193
2 0.101522 3.13278 7.09564
2 0.870494 2.28292 10.1442
1 -0.645244 2.80484 8.97575
2 3.59998 3.72342 8.33801
2 4.03958 0.880563 9.77194
1 2.77169 2.35482 9.75292
2 -5.63377 4.32054 7.53915
1 -4.2513 3.12769 8.2733
2 3.49977 1.3218 25.0038
2 -4.76203 -0.975103 74.9259
2 3.06985 2.27191 74.5881
2 -0.78621 2.52362 69.4281
2 3.20358 6.62833 19.8904
2 5.2261 -1.54803 76.623
2 0.830116 3.56603 25.1818
2 -4.60721 1.86336 45.5859
2 -4.47711 0.230165 66.7152
2 -1.82787 1.35788 78.9321
2 2.84634 1.4402 30.8398
2 -5.25423 -2.62337 31.6273
2 5.53514 3.65731 27.525
2 6.54744 3.49914 24.2983
2 -2.99334 2.95668 23.9382
2 -1.46694 -1.71955 73.1366
2 -0.230441 -0.0405037 32.1696
2 -0.44488 2.9856 70.6233
2 4.71391 -3.1137 38.5539
2 -5.14606 -4.74177 33.4781
2 6.71402 -3.77763 40.9701
2 3.59932 0.997479 77.6847
2 0.179673 2.40065 76.8209
2 4.90374 0.155348 70.7386
2 1.25692 -0.971767 10.2435
2 3.36757 -1.84383 68.6413
2 6.44422 5.21893 34.8495
2 2.95379 -2.29923 41.267
2 -3.4566 2.59922 75.2605
2 1.85326 5.86565 22.6914
2 6.54436 5.5363 41.3845
2 5.50301 3.67856 31.6567
2 -5.98369 2.42986 69.8303
2 6.45603 1.17728 43.6557
2 -3.36325 3.37472 6.26841
2 -3.23686 0.0738941 30.3332
2 5.1081 0.663931 64.7074
2 -4.63556 0.139696 77.57
2 -1.65585 0.186931 75.871
2 3.88271 5.47462 25.1826
2 2.49961 5.9619 18.069
2 2.07787 2.84958 17.0714
2 0.451356 -0.439469 69.7028
2 6.10713 -0.95676 41.0456
2 4.87932 -3.27084 70.8623
2 4.65681 0.270257 28.1039
2 -3.52664 3.2373 71.9008
2 1.31118 1.30215 13.6218
2 5.27991 -2.99444 29.1521
2 1.28514 0.463204 17.1176
2 5.22111 3.70169 44.2685
2 -5.95923 -1.59954 69.1425
2 6.00751 4.86082 18.6277
2 1.98237 -0.077319 75.8264
2 6.88956 1.34457 25.8746
2 -0.538676 2.89983 73.8678
2 -3.22094 0.465836 69.731
2 4.42187 3.75502 67.8061
2 0.177852 0.791043 13.1893
2 0.955365 0.423696 73.4148
2 -0.508029 2.38159 30.2118
2 6.07229 2.24342 40.4207
2 -5.45277 -1.75927 44.0407
2 1.12854 3.42706 79.5315
2 6.37207 -5.8092 30.4793
2 6.53845 1.42712 73.2035
2 -3.0258 0.828213 72.9195
2 2.55073 4.04523 68.864
2 -4.71223 4.33077 21.4218
2 2.62803 -0.596807 72.0428
2 0.437292 5.17577 28.2472
2 2.42425 2.88029 71.7507
2 4.68457 3.89423 21.4705
2 4.27783 -5.39053 39.8281
2 -1.57279 -0.128889 10.3724
2 4.71178 -1.03917 73.7136
2 3.75352 1.98276 81.0816
2 -3.32806 5.02476 18.8071
2 6.13766 2.30518 76.1247
2 1.42011 2.02284 22.3767
2 -0.254215 6.79614 20.1919
2 -5.30436 -1.40445 71.9643
2 3.98215 1.74986 19.577
2 6.34119 0.252103 30.4362
2 6.28567 -5.92624 36.7877
2 3.84387 6.43821 28.5679
2 3.72949 1.03238 41.9985
2 5.46453 0.611735 67.4427
2 4.90548 4.72871 38.4591
2 -0.652664 4.40035 18.0565
2 1.69604 3.78853 20.2849
2 2.42784 0.779625 67.2022
2 -1.70438 -1.77889 71.8711
2 2.52324 2.82993 28.1276
2 -1.75854 2.95183 20.2928
2 3.53094 -5.47786 68.5529
2 4.69078 4.0847 78.689
2 3.66223 4.37724 41.2658
2 -5.06881 1.3005 8.89036
2 -1.05196 4.44593 22.444
1 -4.91393 0.693957 29.5577
1 6.29735 -1.81252 30.4358
1 3.73317 5.69382 39.7747
1 6.90868 -2.35567 42.3102
1 2.95734 -0.000225886 73.995
1 5.07454 -0.854756 68.8275
1 4.087 2.511 40.696
1 1.78368 2.01991 24.3428
1 1.80752 -0.588164 68.4402
1 3.68498 -3.70002 69.3439
1 -4.50558 -0.350665 68.6139
1 0.0804214 3.07349 21.2618
1 -1.53165 0.857137 30.9171
1 6.20392 -5.61088 41.0013
1 5.16934 -5.11377 29.1765
1 -2.2539 3.18545 18.3242
1 5.77588 2.43728 68.3724
1 -3.61163 -0.528099 71.556
1 1.51968 0.530992 32.0067
1 -4.84004 1.99106 76.4294
1 6.38592 1.96201 31.5071
1 3.33933 -3.72358 40.0279
1 -5.9356 3.08386 44.7684
1 -5.55319 -4.64991 31.5763
1 2.7436 1.22373 18.1985
1 6.07488 1.64827 27.5717
1 6.35168 4.17071 39.8659
1 1.40611 2.48835 73.3584
1 6.91222 -2.67991 70.7741
1 5.29994 1.914 24.5082
1 6.89037 0.864585 65.8086
1 1.44247 1.75396 15.532
1 -5.22439 0.0827305 44.7972
1 5.02494 2.49645 77.6652
1 1.38656 -5.81691 19.2434
1 6.59128 3.9618 22.3786
1 -1.00766 3.28423 24.2535
1 3.24603 5.21303 21.2919
1 1.40984 3.94873 70.358
1 -3.35575 0.509953 9.56522
1 -4.57361 2.21678 73.3688
1 3.16063 1.19203 71.0297
1 -5.86947 -5.89303 34.8653
1 5.2923 -4.94569 38.0305
1 5.49601 4.51314 25.6945
1 5.25398 3.29346 19.6003
1 2.12077 2.90303 81.1352
1 3.8464 4.30098 28.5573
1 3.46401 -0.840268 76.8996
1 -4.43072 -2.74989 33.4763
1 3.96103 0.224942 66.0261
1 4.26255 0.403232 30.0308
1 -4.73971 2.6669 24.9542
1 1.90437 6.28149 28.8761
1 5.1461 4.82772 42.6422
1 -4.06379 2.31713 70.1256
1 6.13302 1.6085 71.3233
1 0.0131091 0.780379 11.2113
1 0.0270869 6.00215 22.0013
1 1.19136 3.73336 27.0323
1 5.66336 5.22263 36.7612
1 4.38456 -1.56013 71.7133
1 -1.55252 5.91736 19.0662
1 4.46046 6.06992 18.5154
1 -2.97196 3.75102 21.9846
1 -0.207751 2.33951 78.6391
1 -2.89239 -0.42177 74.5219
1 2.95063 2.38061 21.1939
1 4.55563 1.87814 43.6473
1 -5.04895 4.96678 19.5734
1 2.65443 4.19218 78.4226
1 6.08642 -2.14243 39.5076
1 0.056939 -0.280067 75.1867
1 1.98942 5.02615 24.5053
1 5.91039 4.26104 33.3369
1 -5.8434 -1.07363 76.65
1 0.547552 -0.705752 71.7035
1 -2.64345 0.278914 77.6337
1 6.16808 5.29985 30.7558
1 4.0955 -0.803325 41.5743
1 1.36326 4.24263 18.2975
1 3.76996 5.59788 68.2926
1 4.90153 -1.61049 27.8789
1 -1.27241 0.44842 69.412
1 5.00883 -2.44819 74.9388
1 6.61893 0.895885 41.7745
1 6.73834 -0.47808 73.5175
1 -1.81657 2.76972 72.5115
1 5.07469 2.25189 74.3635
1 5.09854 3.2018 80.4023
1 3.27933 1.3173 26.9981
1 -0.83387 4.1253 29.5256
1 -1.4571 2.37668 75.5822
1 4.08657 6.72677 26.582
1 3.64712 3.04662 31.5931
1 1.42344 2.22 29.6599
1 -3.71639 -1.64958 30.8896
1 2.7595 2.61711 67.5702
1 3.78174 0.822448 79.6015
1 2.18847 1.94468 76.5078
272
Atoms. Timestep: 300000
1 -0.815811 0.109885 1.3048
1 2.64658 -0.229705 0.970836
1 6.59783 0.0612066 1.3656
1 1.13688 2.50014 1.33052
1 4.78572 2.50405 1.7356
1 -5.04082 2.59785 3.18536
1 -0.687907 4.7189 2.92651
1 2.75057 5.00754 2.61651
1 5.45871 4.44534 4.23209
2 -2.10147 0.434053 2.72464
1 -1.63451 -1.46635 6.2013
2 0.925426 0.577632 0.489601
2 2.44065 -1.15179 2.76242
1 0.938149 -0.532813 3.7884
1 2.82052 -2.88698 3.79688
2 4.54248 0.402317 1.47002
2 -5.32682 -1.20413 2.72316
1 4.37225 -0.328801 3.3146
1 6.74835 -2.27916 4.01807
2 6.70359 2.03501 1.83308
1 -3.73755 -0.221504 3.47688
2 -0.455287 2.99856 2.20261
2 1.17438 1.36644 3.26037
1 -0.891863 1.82938 3.65211
1 0.502068 1.1111 6.78014
2 2.89678 3.46138 1.28044
2 4.56057 0.882412 4.85687
1 2.84614 2.12642 4.30228
1 3.6628 0.719423 6.76297
2 4.08236 3.44064 3.41907
2 -4.88029 1.19586 4.64079
1 6.33861 1.29883 5.54851
1 -3.23628 1.14396 5.99962
2 -1.14101 4.98358 4.94023
1 -1.23044 3.57638 6.33354
2 1.01042 5.6251 3.46406
2 1.97388 5.69586 6.79781
1 0.676233 5.85443 5.4003
1 1.96574 3.85137 7.45484
2 4.00153 5.97759 3.93719
2 4.90656 4.79701 6.26753
1 3.58345 6.24901 5.89986
1 5.44572 3.66603 7.8177
2 -5.59995 4.23686 4.22963
1 -4.81798 4.13115 6.04425
2 -0.479318 -1.89187 7.80349
2 0.124167 -1.63751 5.18787
2 2.79949 -3.07155 5.74583
1 1.37222 -2.06049 6.78317
2 4.83382 -2.10369 4.21729
2 6.69574 -2.5332 5.99734
1 4.63391 -2.46799 6.28108
2 -3.40536 -0.716431 5.83577
1 -4.79578 -1.55918 6.87456
2 -1.05568 1.61034 5.54884
2 1.87247 -0.161367 7.51575
1 -0.424269 -1.17741 9.60153
2 2.20593 2.16632 6.21762
2 4.36977 -1.15309 7.80282
1 2.79899 -0.795045 9.18042
2 5.45783 1.58904 7.32115
2 -4.45847 -0.92566 8.95189
1 5.68536 0.130577 8.85156
2 -2.44151 2.65352 9.64311
2 0.119217 3.07786 7.65572
2 1.14255 2.30643 10.6233
1 -0.576974 2.41491 9.63157
2 3.57639 3.49792 8.68837
2 4.16167 0.60751 10.0183
1 3.13163 2.31134 10.1219
2 -5.54326 4.16302 7.89641
1 -3.82853 3.51111 8.58846
2 4.82194 -0.0500629 24.2409
2 -5.19074 -2.9597 69.3866
2 2.60343 -0.133744 69.4313
2 -1.05613 1.38762 64.4507
2 5.0557 6.25996 19.4467
2 5.09309 -3.4664 71.5587
2 2.10668 2.08311 24.3437
2 6.03837 0.669795 44.6217
2 -4.97127 0.0930024 61.2828
2 -1.16652 -1.10016 73.4516
2 3.9592 -0.376718 30.0652
2 -2.93389 -3.51372 31.0404
2 -5.83066 2.1635 27.3878
2 -5.16379 1.97128 23.1992
2 -1.51867 2.24938 23.1309
2 -1.60018 -3.56273 66.7078
2 0.58344 -1.72349 30.4644
2 -0.730028 1.73047 65.6744
2 4.66746 -4.02478 36.8862
2 -4.60454 6.68781 32.6308
2 5.55255 -4.85184 40.0779
2 2.24653 -1.1841 72.5395
2 -0.244041 0.834621 71.4334
2 4.56792 -0.705313 64.726
2 1.34816 -0.890217 10.5552
2 3.35547 -2.85802 63.0871
2 6.54339 4.26342 33.601
2 1.76103 -3.29694 38.5205
2 -3.82215 0.912055 70.0994
2 3.48261 4.50802 22.19
2 4.90606 4.62216 39.8522
2 6.43379 2.07049 30.5953
2 6.7658 0.930404 64.6241
2 4.6702 0.0622131 42.2399
2 -3.2284 3.01514 6.69587
2 -1.62938 -1.09461 29.2817
2 4.89676 0.464683 59.1425
2 -4.74129 -1.34948 72.1712
2 -1.94456 -1.59184 70.3763
2 5.23783 3.85664 24.8796
2 3.90988 5.31569 17.9452
2 3.88008 0.583893 15.8038
2 0.105217 -1.74916 64.1753
2 4.54038 -2.01041 39.921
2 4.67573 -4.43075 65.2453
2 6.27495 -1.17223 27.4097
2 -3.793 1.48573 66.7393
2 -0.0253842 0.431522 13.7414
2 -5.48232 -4.33155 28.5714
2 3.7687 1.65003 15.1062
2 3.48452 2.48254 42.256
2 6.83415 -2.55568 63.3333
2 -5.46251 4.10273 18.1701
2 1.72431 -2.93399 70.3512
2 -4.49145 0.371792 24.9727
2 -0.755059 0.946402 68.4462
2 -3.47423 -0.836339 64.3814
2 3.82109 2.66952 63.0637
2 0.234366 1.68082 14.0275
2 0.547425 -1.6548 67.9281
2 1.3677 0.908342 28.2368
2 4.80711 1.24231 39.0186
2 5.23842 -2.81369 43.2864
2 -0.0190042 2.04329 74.6119
2 -5.51521 5.26426 29.2529
2 6.22748 -0.339314 68.1689
2 -3.43418 -0.91539 67.6275
2 1.97341 3.11366 63.803
2 -3.28164 2.99663 20.4917
2 2.06659 -2.66081 66.7683
2 2.03394 3.67978 27.35
2 2.14622 0.669968 66.3076
2 5.95636 3.09217 21.476
2 3.62773 6.62985 37.5955
2 -1.09985 0.442764 10.4443
2 4.43319 -3.04094 68.4498
2 1.50719 -0.771726 75.3679
2 -1.70612 4.71217 18.4865
2 5.63806 0.717332 70.8083
2 2.85981 0.816329 21.4465
2 1.28123 6.12652 20.128
2 -5.93504 -2.24109 66.286
2 5.85363 1.05945 19.1081
2 -5.17788 -1.14867 29.9788
2 6.47184 5.80423 35.6771
2 5.10525 6.07144 27.3206
2 2.04125 0.113961 40.1807
2 4.89852 0.00613119 61.8887
2 4.34861 3.78143 36.8789
2 1.10483 3.15462 16.9891
2 3.21958 2.02166 19.1191
2 2.15156 -0.226432 61.7276
2 -2.62499 -3.58636 65.91
2 3.95946 1.38495 26.8198
2 -0.26514 1.72871 19.4963
2 3.0578 6.4347 63.0896
2 3.13178 1.73154 73.2284
2 2.36199 3.34987 38.896
2 -5.17171 0.251865 9.14398
2 0.527833 3.1708 21.582
1 -3.5662 -0.650317 28.9948
1 -4.60141 -3.20258 30.0909
1 2.76964 4.82535 37.7285
1 4.98179 -3.39734 41.46
1 2.63855 -2.03922 68.7219
1 4.90608 -1.72574 63.0257
1 2.76023 1.41491 38.8955
1 3.15655 0.629427 23.4192
1 1.79807 -1.68095 62.9936
1 3.54677 -4.73467 63.6802
1 -4.75192 -0.98887 62.8316
1 1.51016 1.93018 20.3667
1 0.236433 -0.591604 28.816
1 4.94557 6.47136 39.253
1 6.67996 6.76235 28.2258
1 -0.645057 3.00835 18.0999
1 5.07042 1.19075 63.603
1 -3.97842 -1.85443 65.9119
1 2.45431 -1.5047 30.608
1 -5.35267 0.379601 71.2845
1 -5.25599 0.64591 30.6751
1 2.71939 -4.57371 37.3948
1 4.982 1.81948 43.3796
1 -4.90252 6.09341 30.8341
1 4.30002 0.703537 17.9106
1 -5.40425 0.333676 26.7597
1 5.29772 3.18477 38.5101
1 1.08842 0.390851 68.053
1 6.48041 -3.59024 65.0188
1 6.74821 0.347597 23.868
1 6.28793 0.5406 60.5409
1 1.68893 1.97247 15.5216
1 5.65243 -1.04558 43.7335
1 4.39264 1.60188 71.9354
1 3.01911 6.56983 19.2635
1 -5.05662 2.58137 21.137
1 0.473951 2.47245 23.4424
1 5.07153 4.92279 20.9411
1 1.35875 2.21188 65.347
1 -3.17071 0.716617 10.1411
1 -4.87078 0.453586 68.1745
1 2.80812 -1.04423 65.5453
1 -5.20271 5.84062 34.1575
1 5.3525 -5.82978 36.5096
1 6.35445 3.46122 23.3614
1 6.9454 2.31242 18.1786
1 0.56588 0.733198 75.9151
1 5.36483 2.62033 26.4199
1 3.26081 -2.6651 71.7565
1 -3.56516 -4.68354 32.2776
1 3.54628 -0.0777529 60.3834
1 5.75347 -1.25359 29.4602
1 -3.36772 1.72078 23.9311
1 3.62231 4.76423 27.4768
1 3.45364 3.62152 40.703
1 -4.21199 0.954948 64.8088
1 6.11796 -0.424969 65.9374
1 0.48902 0.522726 11.7777
1 1.82054 4.76023 21.3715
1 2.06539 1.96717 26.3064
1 5.56924 4.00432 35.3062
1 3.6687 -3.631 66.5836
1 -0.538957 5.83472 19.5595
1 5.95909 5.30875 17.9993
1 -1.39171 2.75175 21.0994
1 -0.977542 0.877211 73.2803
1 -3.21208 -2.24427 68.992
1 4.63158 1.70707 20.6678
1 2.79549 0.547047 41.8738
1 -3.50943 4.02906 18.6695
1 1.48095 2.56356 73.5538
1 5.26866 -3.45405 38.5969
1 -0.173099 -2.29363 69.7122
1 3.42291 3.60439 23.9297
1 6.69038 3.32312 31.966
1 6.94751 -2.55361 71.2514
1 0.0877153 -2.57969 66.0474
1 -2.84818 -1.49895 72.3467
1 -5.83359 3.32861 29.0295
1 2.67655 -1.64324 39.3478
1 2.76066 3.64627 17.912
1 3.04548 4.55846 63.4717
1 -5.89669 -2.93662 27.3393
1 -1.51643 -0.771385 64.1413
1 4.79751 -4.34108 69.8481
1 5.17346 -0.284626 40.4317
1 6.3075 -2.4022 68.2896
1 -2.06308 0.76329 67.0876
1 4.6599 0.329856 69.2431
1 2.88894 0.0458476 74.2369
1 4.81501 -0.412226 26.1206
1 1.17177 2.74727 28.8708
1 -1.79622 0.543915 70.2038
1 5.61176 5.59147 25.5423
1 4.74135 1.12934 30.9394
1 3.33833 0.740199 28.5837
1 -1.29974 -2.49768 30.5873
1 2.06013 1.57174 62.6014
1 0.672758 -1.7734 73.6378
1 1.56724 0.080609 71.0883
272
Atoms. Timestep: 400000
1 0.244481 -1.43689 2.06811
1 3.56439 -1.93997 1.90075
1 -5.5772 -1.53161 2.44197
1 2.09882 0.954465 2.51616
1 5.66164 0.992677 2.63986
1 -4.12113 1.19097 3.90867
1 0.0950314 3.23769 4.48652
1 3.77035 3.61983 3.79286
1 6.60934 3.06759 5.15412
2 -1.21617 -1.00433 3.40479
1 -0.702427 -3.09066 6.8882
2 1.92207 -0.793846 1.48935
2 3.29921 -3.07478 3.59945
1 1.87872 -2.05844 4.52236
1 4.0629 -4.86458 4.55021
2 5.30669 -1.18239 2.5165
2 -4.26538 -2.79549 3.30334
1 5.07658 -2.06097 4.43446
1 -5.39533 -3.87709 4.51116
2 -5.33036 0.393166 2.58034
1 -2.86211 -1.77316 4.36974
2 0.368146 1.67742 3.28448
2 2.1374 -0.094922 4.45903
1 -0.0675484 0.316753 4.69667
1 1.41073 -0.279715 7.28626
2 3.79482 1.95435 2.60129
2 5.38626 -0.527605 5.62738