1851
Atoms. Timestep: 0
1 6.25597 11.9374 11.0717
1 7.29545 12.0388 8.00467
1 8.33493 12.1402 4.93762
1 9.37441 12.2416 1.87057
1 10.4139 12.343 -1.19648
1 11.4534 12.4444 -4.26353
2 9.96858 11.3944 10.6007
1 10.5131 11.1458 12.4884
1 8.68096 10.0116 10.1186
2 11.0081 11.4958 7.53364
1 11.5526 11.2472 9.42132
1 9.72044 10.113 7.05152
2 12.0475 11.5972 4.46658
1 10.7599 10.2145 3.98447
1 11.7994 10.3159 0.917417
1 10.0665 7.98447 12.2325
2 12.3936 9.46867 9.64753
1 11.106 8.08588 9.16542
1 12.1454 8.18729 6.09837
1 12.4915 6.05872 11.2793
1 -2.02764 12.1014 11.6924
1 -0.988164 12.2028 8.62534
1 0.0513139 12.3043 5.55828
1 1.09079 12.4057 2.49123
2 1.68496 11.5585 11.2213
1 0.397349 10.1757 10.7392
2 2.72444 11.6599 8.1543
1 3.26899 11.4113 10.042
1 1.43683 10.2771 7.67218
2 3.76392 11.7613 5.08725
1 4.30847 11.5127 6.97494
1 2.4763 10.3785 4.60513
2 4.80339 11.8627 2.0202
1 5.34794 11.6141 3.90788
1 3.51578 10.4799 1.53808
2 5.84287 11.9641 -1.04685
1 6.38742 11.7155 0.840834
1 4.55526 10.5813 -1.52897
2 6.88235 12.0655 -4.11391
1 7.4269 11.8169 -2.22622
1 5.59474 10.6827 -4.59602
2 7.92183 12.1669 -7.18096
1 8.46638 11.9184 -5.29327
1 6.63422 10.7842 -7.66307
2 8.96131 12.2684 -10.248
1 9.50586 12.0198 -8.36032
1 7.67369 10.8856 -10.7301
1 10.5453 12.1212 -11.4274
2 4.10995 9.63273 10.2682
1 4.6545 9.38413 12.1559
1 2.82234 8.24993 9.78608
2 6.98159 10.8683 9.57095
2 5.14943 9.73414 7.20114
1 5.69398 9.48554 9.08883
1 3.86182 8.35134 6.71903
2 8.02107 10.9698 6.5039
2 6.18891 9.83555 4.13409
1 6.73346 9.58696 6.02178
1 4.9013 8.45276 3.65198
2 9.06055 11.0712 3.43685
2 7.22839 9.93696 1.06704
1 7.77294 9.68837 2.95473
1 5.94077 8.55417 0.584926
2 10.1 11.1726 0.369797
2 8.26786 10.0384 -2.00001
1 8.81241 9.78978 -0.11232
1 6.98025 8.65558 -2.48212
2 11.1395 11.274 -2.69725
2 9.30734 10.1398 -5.06706
1 9.85189 9.89119 -3.17937
1 8.01973 8.75699 -5.54918
2 12.179 11.3754 -5.7643
2 10.3468 10.2412 -8.13411
1 10.8914 9.99261 -6.24642
1 9.05921 8.85841 -8.61623
2 11.3863 10.3426 -11.2012
1 11.9308 10.094 -9.31347
1 10.0987 8.95982 -11.6833
2 5.49547 7.60556 12.3821
1 4.20785 6.22277 11.9
2 8.3671 8.84118 11.6848
2 6.53494 7.70698 9.31504
1 7.07949 7.45838 11.2027
1 5.24733 6.32418 8.83293
2 9.40658 8.94259 8.6178
2 7.57442 7.80839 6.24799
1 8.11897 7.55979 8.13568
1 6.28681 6.42559 5.76587
2 10.4461 9.044 5.55075
2 8.6139 7.9098 3.18094
1 9.15845 7.66121 5.06863
1 7.32629 6.52701 2.69882
2 11.4855 9.14541 2.48369
2 9.65338 8.01121 0.11389
1 10.1979 7.76262 2.00158
1 8.36576 6.62842 -0.368227
2 10.6929 8.11262 -2.95316
1 11.2374 7.86403 -1.06547
1 9.40524 6.72983 -3.43528
2 11.7323 8.21404 -6.02021
1 12.2769 7.96544 -4.13252
1 10.4447 6.83124 -6.50233
1 11.4842 6.93265 -9.56938
2 7.92046 5.67981 11.4289
1 6.63284 4.29702 10.9468
2 10.7921 6.91542 10.7317
2 8.95993 5.78122 8.36189
1 9.50448 5.53263 10.2496
1 7.67232 4.39843 7.87977
2 11.8316 7.01684 7.66464
2 9.99941 5.88264 5.29484
1 10.544 5.63404 7.18253
1 8.7118 4.49984 4.81272
2 11.0389 5.98405 2.22779
1 11.5834 5.73545 4.11548
1 9.75128 4.60125 1.74567
2 12.0784 6.08546 -0.839264
1 10.7908 4.70267 -1.32138
1 11.8302 4.80408 -4.38843
2 10.3454 3.75406 10.4758
1 10.89 3.50547 12.3635
1 9.05784 2.37127 9.99367
2 11.3849 3.85547 7.40874
1 11.9295 3.60688 9.29642
1 10.0973 2.47268 6.92662
2 12.4244 3.95689 4.34168
1 11.1368 2.57409 3.85957
1 12.1763 2.6755 0.792517
1 10.4433 0.344104 12.1076
1 11.4828 0.445516 9.04052
1 -10.3113 12.2655 12.313
1 -9.27178 12.3669 9.246
1 -8.2323 12.4683 6.17895
2 -6.59865 11.7225 11.842
1 -7.88626 10.3397 11.3599
2 -5.55918 11.8239 8.77496
1 -5.01463 11.5753 10.6626
1 -6.84679 10.4411 8.29284
2 -4.5197 11.9254 5.70791
1 -3.97515 11.6768 7.5956
1 -5.80731 10.5426 5.22579
2 -3.48022 12.0268 2.64086
1 -2.93567 11.7782 4.52855
1 -4.76783 10.644 2.15874
2 -2.44074 12.1282 -0.426192
1 -1.89619 11.8796 1.4615
1 -3.72835 10.7454 -0.908309
2 -1.40126 12.2296 -3.49324
1 -0.856715 11.981 -1.60555
1 -2.68888 10.8468 -3.97536
2 -0.361786 12.331 -6.56029
1 0.182763 12.0824 -4.67261
1 -1.6494 10.9482 -7.04241
2 0.677692 12.4324 -9.62734
1 1.22224 12.1838 -7.73966
1 -0.60992 11.0496 -10.1095
1 2.26172 12.2852 -10.8067
2 -4.17366 9.79678 10.8889
1 -5.46127 8.41398 10.4067
2 -1.30202 11.0324 10.1916
2 -3.13418 9.89819 7.82181
1 -2.58963 9.6496 9.7095
1 -4.4218 8.5154 7.33969
2 -0.262545 11.1338 7.12456
2 -2.09471 9.9996 4.75476
1 -1.55016 9.75101 6.64244
1 -3.38232 8.61681 4.27264
2 0.776933 11.2352 4.05751
2 -1.05523 10.101 1.68771
1 -0.510679 9.85242 3.57539
1 -2.34284 8.71822 1.20559
2 1.81641 11.3366 0.99046
2 -0.0157506 10.2024 -1.37935
1 0.528799 9.95383 0.508343
1 -1.30336 8.81963 -1.86146
2 2.85589 11.438 -2.07659
2 1.02373 10.3038 -4.4464
1 1.56828 10.0552 -2.55871
1 -0.263885 8.92104 -4.92851
2 3.89537 11.5395 -5.14364
2 2.0632 10.4053 -7.51345
1 2.60775 10.1567 -5.62576
1 0.775593 9.02246 -7.99556
2 4.93484 11.6409 -8.21069
2 3.10268 10.5067 -10.5805
1 3.64723 10.2581 -8.69281
1 1.81507 9.12387 -11.0626
2 5.97432 11.7423 -11.2777
1 4.68671 10.3595 -11.7599
2 0.0834905 9.00523 12.3055
2 -1.74867 7.87103 9.9357
1 -1.20412 7.62243 11.8234
1 -3.03628 6.48823 9.45359
2 1.12297 9.10664 9.23846
2 -0.709193 7.97244 6.86865
1 -0.164644 7.72385 8.75634
1 -1.9968 6.58965 6.38654
2 2.16245 9.20805 6.17141
2 0.330285 8.07385 3.8016
1 0.874834 7.82526 5.68929
1 -0.957327 6.69106 3.31949
2 3.20192 9.30946 3.10436
2 1.36976 8.17526 0.734552
1 1.91431 7.92667 2.62224
1 0.0821506 6.79247 0.252435
2 4.2414 9.41088 0.0373061
2 2.40924 8.27668 -2.3325
1 2.95379 8.02808 -0.44481
1 1.12163 6.89388 -2.81462
2 5.28088 9.51229 -3.02974
2 3.44872 8.37809 -5.39955
1 3.99327 8.12949 -3.51186
1 2.16111 6.99529 -5.88167
2 6.32036 9.6137 -6.0968
2 4.4882 8.4795 -8.4666
1 5.03275 8.23091 -6.57891
1 3.20058 7.09671 -8.94872
2 7.35984 9.71511 -9.16385
2 5.52767 8.58091 -11.5337
1 6.07222 8.33232 -9.64596
1 4.24006 7.19812 -12.0158
2 8.39931 9.81652 -12.2309
2 -0.363157 5.84386 12.0496
1 -1.65077 4.46107 11.5675
2 2.50848 7.07948 11.3524
2 0.67632 5.94528 8.98255
1 1.22087 5.69668 10.8702
1 -0.611292 4.56248 8.50043
2 3.54796 7.18089 8.28531
2 1.7158 6.04669 5.9155
1 2.26035 5.79809 7.80319
1 0.428186 4.66389 5.43338
2 4.58744 7.2823 5.21825
2 2.75528 6.1481 2.84845
1 3.29983 5.89951 4.73614
1 1.46766 4.76531 2.36633
2 5.62691 7.38371 2.1512
2 3.79475 6.24951 -0.218601
1 4.3393 6.00092 1.66909
1 2.50714 4.86672 -0.700718
2 6.66639 7.48512 -0.915847
2 4.83423 6.35092 -3.28565
1 5.37878 6.10233 -1.39796
1 3.54662 4.96813 -3.76777
2 7.70587 7.58654 -3.9829
2 5.87371 6.45234 -6.3527
1 6.41826 6.20374 -4.46501
1 4.5861 5.06954 -6.83482
2 8.74535 7.68795 -7.04995
2 6.91319 6.55375 -9.41975
1 7.45774 6.30515 -7.53207
1 5.62558 5.17095 -9.90187
2 9.78483 7.78936 -10.117
2 7.95266 6.65516 -12.4868
1 8.49721 6.40657 -10.5991
2 2.06183 3.91811 11.0964
1 0.774222 2.53532 10.6143
2 4.93347 5.15372 10.3992
2 3.10131 4.01952 8.0294
1 3.64586 3.77093 9.91709
1 1.8137 2.63673 7.54728
2 5.97295 5.25514 7.33215
2 4.14079 4.12094 4.96235
1 4.68534 3.87234 6.85004
1 2.85318 2.73814 4.48023
2 7.01243 5.35655 4.2651
2 5.18027 4.22235 1.8953
1 5.72482 3.97376 3.78298
1 3.89265 2.83956 1.41318
2 8.05191 5.45796 1.19805
2 6.21974 4.32376 -1.17175
1 6.76429 4.07517 0.715934
1 4.93213 2.94097 -1.65387
2 9.09138 5.55937 -1.869
2 7.25922 4.42517 -4.23881
1 7.80377 4.17658 -2.35112
1 5.97161 3.04238 -4.72092
2 10.1309 5.66079 -4.93605
2 8.2987 4.52659 -7.30586
1 8.84325 4.27799 -5.41817
1 7.01109 3.14379 -7.78797
2 11.1703 5.7622 -8.0031
2 9.33818 4.628 -10.3729
1 9.88273 4.3794 -8.48522
1 8.05057 3.2452 -10.855
2 12.2098 5.86361 -11.0702
1 10.9222 4.48082 -11.5523
2 4.48682 1.99236 10.1433
1 5.03137 1.74377 12.031
1 3.19921 0.609568 9.66118
2 7.35846 3.22797 9.44605
2 5.5263 2.09377 7.07624
1 6.07085 1.84518 8.96393
1 4.23869 0.71098 6.59413
2 8.39794 3.32939 6.379
2 6.56578 2.19519 4.00919
1 7.11033 1.94659 5.89688
1 5.27817 0.812392 3.52708
2 9.43742 3.4308 3.31195
2 7.60526 2.2966 0.942143
1 8.14981 2.048 2.82983
1 6.31765 0.913804 0.460026
2 10.4769 3.53221 0.244897
2 8.64474 2.39801 -2.12491
1 9.18929 2.14942 -0.23722
1 7.35712 1.01522 -2.60702
2 11.5164 3.63362 -2.82215
2 9.68421 2.49942 -5.19196
1 10.2288 2.25083 -3.30427
1 8.3966 1.11663 -5.67408
2 10.7237 2.60083 -8.25901
1 11.2682 2.35224 -6.37132
1 9.43608 1.21804 -8.74113
2 11.7632 2.70225 -11.3261
1 12.3077 2.45365 -9.43837
1 10.4756 1.31945 -11.8082
2 5.87234 -0.0348014 12.2572
1 4.58473 -1.4176 11.7751
2 8.74398 1.20081 11.5599
2 6.91182 0.0666108 9.19014
1 7.45636 -0.181983 11.0778
1 5.6242 -1.31618 8.70803
2 9.78345 1.30222 8.4929
2 7.95129 0.168023 6.12309
1 8.49584 -0.0805709 8.01078
1 6.66368 -1.21477 5.64097
2 10.8229 1.40364 5.42585
2 8.99077 0.269435 3.05604
1 9.53532 0.0208412 4.94373
1 7.70316 -1.11336 2.57392
2 11.8624 1.50505 2.35879
2 10.0302 0.370847 -0.0110107
1 10.5748 0.122253 1.87668
1 8.74264 -1.01195 -0.493127
2 11.0697 0.472259 -3.07806
1 11.6143 0.223665 -1.19037
1 9.78211 -0.910535 -3.56018
2 12.1092 0.573671 -6.14511
1 10.8216 -0.809122 -6.62723
1 11.8611 -0.70771 -9.69428
2 8.29733 -1.96055 11.304
1 7.00972 -3.34335 10.8219
2 11.169 -0.72494 10.6068
2 9.33681 -1.85914 8.23699
1 9.88136 -2.10773 10.1247
1 8.04919 -3.24193 7.75487
2 12.2084 -0.623528 7.53974
2 10.3763 -1.75773 5.16994
1 10.9208 -2.00632 7.05763
1 9.08867 -3.14052 4.68782
2 11.4158 -1.65632 2.10289
1 11.9603 -1.90491 3.99058
1 10.1282 -3.03911 1.62077
2 12.4552 -1.5549 -0.964164
1 11.1676 -2.9377 -1.44628
1 12.2071 -2.83629 -4.51333
2 10.7223 -3.8863 10.3509
1 11.2669 -4.1349 12.2386
1 9.43471 -5.2691 9.86877
2 11.7618 -3.78489 7.28384
1 12.3063 -4.03349 9.17152
1 10.4742 -5.16769 6.80172
1 11.5137 -5.06627 3.73467
2 12.1078 -5.91347 12.4648
1 10.8202 -7.29626 11.9827
1 11.8597 -7.19485 8.91562
1 -12.2588 11.8408 8.21626
2 -11.7638 12.1908 3.26152
1 -11.2193 11.9422 5.14921
2 -10.7244 12.2922 0.194471
1 -10.1798 12.0436 2.08216
1 -12.012 10.9094 -0.287646
2 -9.68488 12.3936 -2.87258
1 -9.14033 12.145 -0.984892
1 -10.9725 11.0108 -3.3547
2 -8.6454 12.4951 -5.93963
1 -8.10085 12.2465 -4.05194
1 -9.93301 11.1123 -6.42175
1 -7.06137 12.3479 -7.11899
1 -8.89353 11.2137 -9.4888
1 -6.0219 12.4493 -10.186
2 -12.4573 9.96083 11.5095
2 -9.58564 11.1964 10.8123
2 -11.4178 10.0622 8.44247
1 -10.8732 9.81365 10.3302
2 -8.54616 11.2979 7.74522
2 -10.3783 10.1637 5.37542
1 -9.83377 9.91506 7.26311
1 -11.6659 8.78086 4.8933
2 -7.50668 11.3993 4.67817
2 -9.33884 10.2651 2.30837
1 -8.79429 10.0165 4.19606
1 -10.6265 8.88227 1.82625
2 -6.4672 11.5007 1.61112
2 -8.29936 10.3665 -0.758683
1 -7.75482 10.1179 1.12901
1 -9.58698 8.98368 -1.2408
2 -5.42773 11.6021 -1.45593
2 -7.25989 10.4679 -3.82573
1 -6.71534 10.2193 -1.93805
1 -8.5475 9.0851 -4.30785
2 -4.38825 11.7035 -4.52298
2 -6.22041 10.5693 -6.89278
1 -5.67586 10.3207 -5.0051
1 -7.50802 9.18651 -7.3749
2 -3.34877 11.8049 -7.59003
2 -5.18093 10.6707 -9.95984
1 -4.63638 10.4221 -8.07215
1 -6.46854 9.28792 -10.442
2 -2.30929 11.9063 -10.6571
1 -3.5969 10.5235 -11.1392
2 -10.0323 8.03508 10.5564
1 -9.48774 7.78648 12.4441
1 -11.3199 6.65228 10.0743
2 -7.16065 9.27069 9.85912
2 -8.99281 8.13649 7.48932
1 -8.44826 7.8879 9.377
1 -10.2804 6.7537 7.0072
2 -6.12117 9.3721 6.79207
2 -7.95333 8.2379 4.42227
1 -7.40878 7.98931 6.30995
1 -9.24094 6.85511 3.94015
2 -5.08169 9.47352 3.72502
2 -6.91385 8.33932 1.35521
1 -6.3693 8.09072 3.2429
1 -8.20146 6.95652 0.873098
2 -4.04221 9.57493 0.657969
2 -5.87437 8.44073 -1.71184
1 -5.32982 8.19213 0.175852
1 -7.16199 7.05793 -2.19395
2 -3.00273 9.67634 -2.40908
2 -4.8349 8.54214 -4.77889
1 -4.29035 8.29355 -2.8912
1 -6.12251 7.15935 -5.261
2 -1.96326 9.77775 -5.47613
2 -3.79542 8.64355 -7.84594
1 -3.25087 8.39496 -5.95825
1 -5.08303 7.26076 -8.32805
2 -0.923779 9.87916 -8.54318
2 -2.75594 8.74496 -10.913
1 -2.21139 8.49637 -9.0253
1 -4.04355 7.36217 -11.3951
2 0.115699 9.98058 -11.6102
1 -1.17191 8.59778 -12.0924
1 -9.93438 4.62512 12.1881
2 -5.77513 7.24353 11.973
2 -7.60729 6.10933 9.60321
1 -7.06274 5.86073 11.4909
1 -8.89491 4.72653 9.1211
2 -4.73565 7.34494 8.90597
2 -6.56782 6.21074 6.53616
1 -6.02327 5.96215 8.42385
1 -7.85543 4.82795 6.05405
2 -3.69618 7.44635 5.83892
2 -5.52834 6.31215 3.46911
1 -4.98379 6.06356 5.3568
1 -6.81595 4.92936 2.987
2 -2.6567 7.54776 2.77187
2 -4.48886 6.41356 0.402061
1 -3.94431 6.16497 2.28975
1 -5.77647 5.03077 -0.0800554
2 -1.61722 7.64918 -0.295185
2 -3.44938 6.51498 -2.66499
1 -2.90483 6.26638 -0.777301
1 -4.73699 5.13218 -3.14711
2 -0.577744 7.75059 -3.36224
2 -2.4099 6.61639 -5.73204
1 -1.86536 6.36779 -3.84435
1 -3.69752 5.23359 -6.21416
2 0.461734 7.852 -6.42929
2 -1.37043 6.7178 -8.79909
1 -0.825878 6.46921 -6.9114
1 -2.65804 5.33501 -9.28121
2 1.50121 7.95341 -9.49634
2 -0.330949 6.81921 -11.8661
1 0.2136 6.57062 -9.97845
1 -1.61856 5.43642 -12.3483
2 -6.22178 4.08216 11.7171
1 -7.50939 2.69937 11.235
2 -3.35014 5.31778 11.0199
2 -5.1823 4.18358 8.65006
1 -4.63775 3.93498 10.5377
1 -6.46991 2.80078 8.16794
2 -2.31066 5.41919 7.95281
2 -4.14283 4.28499 5.58301
1 -3.59828 4.03639 7.4707
1 -5.43044 2.90219 5.10089
2 -1.27119 5.5206 4.88576
2 -3.10335 4.3864 2.51596
1 -2.5588 4.13781 4.40365
1 -4.39096 3.00361 2.03384
2 -0.231708 5.62201 1.81871
2 -2.06387 4.48781 -0.551092
1 -1.51932 4.23922 1.3366
1 -3.35148 3.10502 -1.03321
2 0.80777 5.72343 -1.24834
2 -1.02439 4.58923 -3.61814
1 -0.479843 4.34063 -1.73045
1 -2.312 3.20643 -4.10026
2 1.84725 5.82484 -4.31539
2 0.0150861 4.69064 -6.68519
1 0.559635 4.44204 -4.79751
1 -1.27253 3.30784 -7.16731
2 2.88673 5.92625 -7.38244
2 1.05456 4.79205 -9.75225
1 1.59911 4.54346 -7.86456
1 -0.233048 3.40926 -10.2344
2 3.9262 6.02766 -10.4495
1 2.63859 4.64487 -10.9316
2 -3.79679 2.15641 10.764
1 -5.0844 0.77362 10.2818
2 -0.925151 3.39203 10.0667
2 -2.75731 2.25783 7.69691
1 -2.21276 2.00923 9.5846
1 -4.04492 0.875032 7.21479
2 0.114327 3.49344 6.99966
2 -1.71783 2.35924 4.62986
1 -1.17328 2.11064 6.51754
1 -3.00545 0.976444 4.14774
2 1.15381 3.59485 3.93261
2 -0.678356 2.46065 1.56281
1 -0.133807 2.21206 3.45049
1 -1.96597 1.07786 1.08069
2 2.19328 3.69626 0.865559
2 0.361122 2.56206 -1.50425
1 0.905671 2.31347 0.383443
1 -0.92649 1.17927 -1.98636
2 3.23276 3.79767 -2.20149
2 1.4006 2.66347 -4.5713
1 1.94515 2.41488 -2.68361
1 0.112987 1.28068 -5.05341
2 4.27224 3.89909 -5.26854
2 2.44008 2.76489 -7.63835
1 2.98463 2.51629 -5.75066
1 1.15247 1.38209 -8.12046
2 5.31172 4.0005 -8.33559
2 3.47955 2.8663 -10.7054
1 4.0241 2.6177 -8.81771
1 2.19194 1.4835 -11.1875
2 6.35119 4.10191 -11.4026
1 5.06358 2.71912 -11.8848
1 -3.69889 -1.25354 12.3957
2 0.460363 1.36486 12.1806
2 -1.3718 0.230663 9.8108
1 -0.827249 -0.0179313 11.6985
1 -2.65941 -1.15213 9.32869
2 1.49984 1.46627 9.11356
2 -0.332321 0.332075 6.74375
1 0.212228 0.0834809 8.63144
1 -1.61993 -1.05072 6.26164
2 2.53932 1.56769 6.04651
2 0.707157 0.433487 3.6767
1 1.25171 0.184893 5.56439
1 -0.580455 -0.949307 3.19459
2 3.5788 1.6691 2.97946
2 1.74663 0.534899 0.609652
1 2.29118 0.286305 2.49734
1 0.459023 -0.847895 0.127535
2 4.61827 1.77051 -0.0875941
2 2.78611 0.636311 -2.4574
1 3.33066 0.387717 -0.569711
1 1.4985 -0.746483 -2.93952
2 5.65775 1.87192 -3.15465
2 3.82559 0.737723 -5.52445
1 4.37014 0.489129 -3.63676
1 2.53798 -0.645071 -6.00657
2 6.69723 1.97334 -6.2217
2 4.86507 0.839135 -8.5915
1 5.40962 0.590541 -6.70381
1 3.57746 -0.543659 -9.07362
2 7.73671 2.07475 -9.28875
2 5.90455 0.940547 -11.6586
1 6.4491 0.691954 -9.77086
1 4.61693 -0.442246 -12.1407
2 8.77619 2.17616 -12.3558
2 0.0137147 -1.7965 11.9247
1 -1.2739 -3.17929 11.4426
2 2.88535 -0.560888 11.2275
2 1.05319 -1.69509 8.85765
1 1.59774 -1.94368 10.7453
1 -0.23442 -3.07788 8.37553
2 3.92483 -0.459476 8.16041
2 2.09267 -1.59368 5.7906
1 2.63722 -1.84227 7.67829
1 0.805058 -2.97647 5.30848
2 4.96431 -0.358064 5.09335
2 3.13215 -1.49226 2.72355
1 3.6767 -1.74086 4.61124
1 1.84454 -2.87506 2.24143
2 6.00379 -0.256652 2.0263
2 4.17163 -1.39085 -0.343502
1 4.71618 -1.63945 1.54419
1 2.88401 -2.77365 -0.825618
2 7.04326 -0.15524 -1.04075
2 5.2111 -1.28944 -3.41055
1 5.75565 -1.53803 -1.52286
1 3.92349 -2.67223 -3.89267
2 8.08274 -0.0538278 -4.1078
2 6.25058 -1.18803 -6.4776
1 6.79513 -1.43662 -4.58992
1 4.96297 -2.57082 -6.95972
2 9.12222 0.0475843 -7.17485
2 7.29006 -1.08662 -9.54465
1 7.83461 -1.33521 -7.65697
1 6.00245 -2.46941 -10.0268
2 10.1617 0.148996 -10.2419
1 8.87409 -1.2338 -10.724
2 2.43871 -3.72225 10.9715
1 1.15109 -5.10505 10.4894
2 5.31034 -2.48664 10.2743
2 3.47818 -3.62084 7.9045
1 4.02273 -3.86943 9.79219
1 2.19057 -5.00363 7.42238
2 6.34982 -2.38523 7.20725
2 4.51766 -3.51943 4.83745
1 5.06221 -3.76802 6.72514
1 3.23005 -4.90222 4.35533
2 7.3893 -2.28382 4.1402
2 5.55714 -3.41802 1.7704
1 6.10169 -3.66661 3.65808
1 4.26953 -4.80081 1.28828
2 8.42878 -2.1824 1.07315
2 6.59662 -3.3166 -1.29665
1 7.14117 -3.5652 0.591033
1 5.309 -4.6994 -1.77877
2 9.46826 -2.08099 -1.9939
2 7.63609 -3.21519 -4.36371
1 8.18064 -3.46378 -2.47602
1 6.34848 -4.59798 -4.84582
2 10.5077 -1.97958 -5.06095
2 8.67557 -3.11378 -7.43076
1 9.22012 -3.36237 -5.54307
1 7.38796 -4.49657 -7.91287
2 11.5472 -1.87817 -8.128
2 9.71505 -3.01237 -10.4978
1 10.2596 -3.26096 -8.61012
1 8.42744 -4.39516 -10.9799
1 11.2991 -3.15955 -11.6772
2 6.69586 -4.5138 12.3882
2 4.8637 -5.648 10.0184
1 5.40825 -5.8966 11.9061
1 3.57608 -7.0308 9.53628
2 7.73534 -4.41239 9.32115
2 5.90317 -5.54659 6.95134
1 6.44772 -5.79518 8.83903
1 4.61556 -6.92938 6.46923
2 8.77481 -4.31098 6.2541
2 6.94265 -5.44518 3.88429
1 7.4872 -5.69377 5.77198
1 5.65504 -6.82797 3.40218
2 9.81429 -4.20957 3.18705
2 7.98213 -5.34377 0.817243
1 8.52668 -5.59236 2.70493
1 6.69452 -6.72656 0.335126
2 10.8538 -4.10815 0.119997
2 9.02161 -5.24235 -2.24981
1 9.56616 -5.49095 -0.36212
1 7.734 -6.62515 -2.73193
2 11.8932 -4.00674 -2.94705
2 10.0611 -5.14094 -5.31686
1 10.6056 -5.38954 -3.42917
1 8.77347 -6.52374 -5.79898
2 11.1006 -5.03953 -8.38391
1 11.6451 -5.28812 -6.49622
1 9.81295 -6.42232 -8.86603
2 12.14 -4.93812 -11.451
1 10.8524 -6.32091 -11.9331
2 6.24921 -7.67517 12.1323
1 4.9616 -9.05796 11.6502
2 9.12085 -6.43955 11.435
2 7.28869 -7.57375 9.06524
1 7.83324 -7.82235 10.9529
1 6.00108 -8.95655 8.58313
2 10.1603 -6.33814 8.368
2 8.32817 -7.47234 5.99819
1 8.87271 -7.72094 7.88588
1 7.04055 -8.85514 5.51607
2 11.1998 -6.23673 5.30094
2 9.36764 -7.37093 2.93114
1 9.91219 -7.61952 4.81883
1 8.08003 -8.75372 2.44902
2 12.2393 -6.13532 2.23389
2 10.4071 -7.26952 -0.135911
1 10.9517 -7.51811 1.75178
1 9.11951 -8.65231 -0.618028
2 11.4466 -7.16811 -3.20296
1 11.9911 -7.4167 -1.31527
1 10.159 -8.5509 -3.68508
2 12.4861 -7.06669 -6.27001
1 11.1985 -8.44949 -6.75213
1 12.2379 -8.34807 -9.81918
2 8.6742 -9.60092 11.1791
1 7.38659 -10.9837 10.697
2 11.5458 -8.3653 10.4819
2 9.71368 -9.4995 8.11209
1 10.2582 -9.7481 9.99978
1 8.42607 -10.8823 7.62997
2 10.7532 -9.39809 5.04504
1 11.2977 -9.64669 6.93273
1 9.46554 -10.7809 4.56292
2 11.7926 -9.29668 1.97799
1 12.3372 -9.54527 3.86567
1 10.505 -10.6795 1.49587
1 11.5445 -10.5781 -1.57118
2 11.0992 -11.5267 10.226
1 11.6437 -11.7753 12.1137
2 12.1387 -11.4253 7.15894
2 -11.6324 11.969 -6.96937
2 -10.5929 12.0704 -10.0364
2 -12.4251 10.9362 -12.4062
1 -11.8805 10.6876 -10.5185
2 -12.3258 9.73898 1.27863
2 -11.2863 9.84039 -1.78842
2 -10.2469 9.9418 -4.85547
2 -12.079 8.8076 -7.22528
1 -11.5345 8.55901 -5.33759
2 -9.20739 10.0432 -7.92252
2 -11.0396 8.90902 -10.2923
1 -10.495 8.66042 -8.40464
1 -12.3272 7.52622 -10.7744
2 -8.16792 10.1446 -10.9896
1 -9.45553 8.76183 -11.4717
2 -11.9798 7.6104 6.45958
2 -10.9403 7.71182 3.39253
1 -12.2279 6.32902 2.91041
2 -9.90084 7.81323 0.325478
2 -11.733 6.67903 -2.04433
1 -11.1884 6.43043 -0.156639
2 -8.86136 7.91464 -2.74157
2 -10.6935 6.78044 -5.11138
1 -10.149 6.53185 -3.22369
1 -11.9811 5.39765 -5.59349
2 -7.82188 8.01605 -5.80862
2 -9.65404 6.88185 -8.17843
1 -9.10949 6.63326 -6.29074
1 -10.9417 5.49906 -8.66055
2 -6.7824 8.11746 -8.87567
2 -8.61456 6.98326 -11.2455
1 -8.07001 6.73467 -9.35779
1 -9.90218 5.60047 -11.7276
2 -5.74292 8.21888 -11.9427
1 -7.03054 6.83608 -12.4248
2 -11.6338 5.48183 11.6405
2 -10.5943 5.58324 8.57348
2 -12.4264 4.44904 6.20367
1 -11.8819 4.20045 8.09136
2 -9.5548 5.68465 5.50643
2 -11.387 4.55045 3.13662
1 -10.8424 4.30186 5.02431
2 -8.51532 5.78606 2.43938
2 -10.3475 4.65186 0.0695704
1 -9.80293 4.40327 1.95726
1 -11.6351 3.26907 -0.412546
2 -7.47584 5.88748 -0.627676
2 -9.30801 4.75328 -2.99748
1 -8.76346 4.50468 -1.10979
1 -10.5956 3.37048 -3.4796
2 -6.43637 5.98889 -3.69473
2 -8.26853 4.85469 -6.06453
1 -7.72398 4.6061 -4.17684
1 -9.55614 3.4719 -6.54665
2 -5.39689 6.0903 -6.76178
2 -7.22905 4.9561 -9.13158
1 -6.6845 4.70751 -7.24389
1 -8.51666 3.57331 -9.6137
2 -4.35741 6.19171 -9.82883
2 -6.18957 5.05751 -12.1986
1 -5.64502 4.80892 -10.3109
2 -12.0804 2.32047 11.3846
2 -9.20876 3.55608 10.6874
2 -11.0409 2.42188 8.31757
1 -10.4964 2.17328 10.2053
1 -12.3285 1.03908 7.83545
2 -8.16929 3.65749 7.62032
2 -10.0014 2.52329 5.25052
1 -9.4569 2.2747 7.13821
1 -11.2891 1.1405 4.7684
2 -7.12981 3.7589 4.55327
2 -8.96197 2.6247 2.18347
1 -8.41742 2.37611 4.07116
1 -10.2496 1.24191 1.70135
2 -6.09033 3.86031 1.48622
2 -7.92249 2.72611 -0.883583
1 -7.37794 2.47752 1.00411
1 -9.2101 1.34332 -1.3657
2 -5.05085 3.96173 -1.58083
2 -6.88301 2.82753 -3.95063
1 -6.33847 2.57893 -2.06295
1 -8.17063 1.44473 -4.43275
2 -4.01138 4.06314 -4.64788
2 -5.84354 2.92894 -7.01768
1 -5.29899 2.68034 -5.13
1 -7.13115 1.54614 -7.4998
2 -2.9719 4.16455 -7.71493
2 -4.80406 3.03035 -10.0847
1 -4.25951 2.78176 -8.19705
1 -6.09167 1.64756 -10.5669
2 -1.93242 4.26596 -10.782
1 -3.22003 2.88317 -11.2641
2 -9.65541 0.394714 10.4315
1 -9.11086 0.146121 12.3192
1 -10.943 -0.98808 9.94935
2 -6.78377 1.63033 9.73422
2 -8.61593 0.496126 7.36442
1 -8.07139 0.247533 9.2521
1 -9.90355 -0.886667 6.8823
2 -5.7443 1.73174 6.66717
2 -7.57646 0.597539 4.29737
1 -7.03191 0.348945 6.18505
1 -8.86407 -0.785255 3.81525
2 -4.70482 1.83315 3.60012
2 -6.53698 0.698951 1.23031
1 -5.99243 0.450357 3.118
1 -7.82459 -0.683843 0.748198
2 -3.66534 1.93456 0.533068
2 -5.4975 0.800363 -1.83674
1 -4.95295 0.551769 0.0509519
1 -6.78511 -0.582431 -2.31885
2 -2.62586 2.03597 -2.53398
2 -4.45802 0.901775 -4.90379
1 -3.91347 0.653181 -3.0161
1 -5.74564 -0.481019 -5.3859
2 -1.58638 2.13739 -5.60103
2 -3.41855 1.00319 -7.97084
1 -2.874 0.754593 -6.08315
1 -4.70616 -0.379607 -8.45295
2 -0.546907 2.2388 -8.66808
2 -2.37907 1.1046 -11.0379
1 -1.83452 0.856005 -9.1502
1 -3.66668 -0.278195 -11.52
2 0.492571 2.34021 -11.7351
1 -0.795041 0.957418 -12.2173
1 -9.55751 -3.01524 12.0632
2 -5.39826 -0.396837 11.8481
2 -7.23042 -1.53104 9.47831
1 -6.68587 -1.77963 11.366
1 -8.51803 -2.91383 8.9962
2 -4.35878 -0.295425 8.78107
2 -6.19094 -1.42962 6.41126
1 -5.64639 -1.67822 8.29895
1 -7.47856 -2.81242 5.92915
2 -3.3193 -0.194012 5.71402
2 -5.15147 -1.32821 3.34421
1 -4.60692 -1.57681 5.2319
1 -6.43908 -2.71101 2.8621
2 -2.27983 -0.0926003 2.64697
2 -4.11199 -1.2268 0.277161
1 -3.56744 -1.47539 2.16485
1 -5.3996 -2.60959 -0.204956
2 -1.24035 0.00881184 -0.420085
2 -3.07251 -1.12539 -2.78989
1 -2.52796 -1.37398 -0.902202
1 -4.36012 -2.50818 -3.27201
2 -0.200872 0.110224 -3.48714
2 -2.03303 -1.02398 -5.85694
1 -1.48848 -1.27257 -3.96925
1 -3.32064 -2.40677 -6.33906
2 0.838606 0.211636 -6.55419
2 -0.993555 -0.922564 -8.92399
1 -0.449006 -1.17116 -7.0363
1 -2.28117 -2.30536 -9.40611
2 1.87808 0.313048 -9.62124
2 0.0459228 -0.821152 -11.991
1 0.590472 -1.06975 -10.1034
1 -1.24169 -2.20395 -12.4732
2 -5.84491 -3.5582 11.5922
1 -7.13252 -4.94099 11.1101
2 -2.97327 -2.32259 10.895
2 -4.80543 -3.45679 8.52516
1 -4.26088 -3.70538 10.4128
1 -6.09304 -4.83958 8.04304
2 -1.93379 -2.22118 7.82791
2 -3.76595 -3.35538 5.45811
1 -3.2214 -3.60397 7.3458
1 -5.05356 -4.73817 4.97599
2 -0.894314 -2.11976 4.76086
2 -2.72648 -3.25396 2.39106
1 -2.18193 -3.50256 4.27875
1 -4.01409 -4.63676 1.90894
2 0.145164 -2.01835 1.69381
2 -1.687 -3.15255 -0.675992
1 -1.14245 -3.40115 1.2117
1 -2.97461 -4.53535 -1.15811
2 1.18464 -1.91694 -1.37324
2 -0.647519 -3.05114 -3.74304
1 -0.10297 -3.29973 -1.85536
1 -1.93513 -4.43393 -4.22516
2 2.22412 -1.81553 -4.44029
2 0.391958 -2.94973 -6.81009
1 0.936507 -3.19832 -4.92241
1 -0.895654 -4.33252 -7.29221
2 3.2636 -1.71411 -7.50734
2 1.43144 -2.84831 -9.87715
1 1.97599 -3.09691 -7.98946
1 0.143824 -4.23111 -10.3593
2 4.30308 -1.6127 -10.5744
1 3.01546 -2.9955 -11.0565
2 -3.41992 -5.48395 10.6391
1 -4.70753 -6.86674 10.1569
2 -0.548278 -4.24834 9.94181
2 -2.38044 -5.38254 7.57201
1 -1.83589 -5.63113 9.4597
1 -3.66805 -6.76533 7.08989
2 0.491199 -4.14693 6.87476
2 -1.34096 -5.28113 4.50496
1 -0.796413 -5.52972 6.39264
1 -2.62857 -6.66392 4.02284
2 1.53068 -4.04551 3.80771
2 -0.301484 -5.17971 1.43791
1 0.243065 -5.42831 3.32559
1 -1.5891 -6.56251 0.955789
2 2.57016 -3.9441 0.740659
2 0.737994 -5.0783 -1.62915
1 1.28254 -5.3269 0.258543
1 -0.549618 -6.4611 -2.11126
2 3.60963 -3.84269 -2.32639
2 1.77747 -4.97689 -4.6962
1 2.32202 -5.22548 -2.80851
1 0.48986 -6.35968 -5.17831
2 4.64911 -3.74128 -5.39344
2 2.81695 -4.87548 -7.76325
1 3.3615 -5.12407 -5.87556
1 1.52934 -6.25827 -8.24536
2 5.68859 -3.63987 -8.46049
2 3.85643 -4.77407 -10.8303
1 4.40098 -5.02266 -8.94261
1 2.56882 -6.15686 -11.3124
2 6.72807 -3.53845 -11.5275
1 5.44045 -4.92125 -12.0097
1 -3.32202 -8.89391 12.2708
2 0.837235 -6.2755 12.0557
2 -0.994926 -7.4097 9.6859
1 -0.450377 -7.6583 11.5736
1 -2.28254 -8.7925 9.20379
2 1.87671 -6.17409 8.98866
2 0.0445515 -7.30829 6.61885
1 0.589101 -7.55688 8.50654
1 -1.24306 -8.69108 6.13674
2 2.91619 -6.07268 5.92161
2 1.08403 -7.20688 3.5518
1 1.62858 -7.45547 5.43949
1 -0.203583 -8.58967 3.06969
2 3.95567 -5.97127 2.85456
2 2.12351 -7.10547 0.484752
1 2.66806 -7.35406 2.37244
1 0.835895 -8.48826 0.00263506
2 4.99515 -5.86985 -0.212494
2 3.16298 -7.00405 -2.5823
1 3.70753 -7.25265 -0.694611
1 1.87537 -8.38685 -3.06442
2 6.03462 -5.76844 -3.27955
2 4.20246 -6.90264 -5.64935
1 4.74701 -7.15123 -3.76166
1 2.91485 -8.28544 -6.13147
2 7.0741 -5.66703 -6.3466
2 5.24194 -6.80123 -8.7164
1 5.78649 -7.04982 -6.82871
1 3.95433 -8.18402 -9.19852
2 8.11358 -5.56562 -9.41365
2 6.28142 -6.69982 -11.7835
1 6.82597 -6.94841 -9.89576
1 4.99381 -8.08261 -12.2656
2 9.15306 -5.4642 -12.4807
2 0.390587 -9.43686 11.7998
1 -0.897025 -10.8197 11.3177
2 3.26223 -8.20125 11.1026
2 1.43006 -9.33545 8.73275
1 1.97461 -9.58405 10.6204
1 0.142453 -10.7182 8.25063
2 4.3017 -8.09984 8.03551
2 2.46954 -9.23404 5.6657
1 3.01409 -9.48263 7.55339
1 1.18193 -10.6168 5.18358
2 5.34118 -7.99843 4.96845
2 3.50902 -9.13263 2.59865
1 4.05357 -9.38122 4.48634
1 2.22141 -10.5154 2.11653
2 6.38066 -7.89702 1.9014
2 4.5485 -9.03122 -0.468402
1 5.09305 -9.27981 1.41929
1 3.26089 -10.414 -0.950518
2 7.42014 -7.7956 -1.16565
2 5.58798 -8.9298 -3.53545
1 6.13253 -9.1784 -1.64776
1 4.30036 -10.3126 -4.01757
2 8.45961 -7.69419 -4.2327
2 6.62745 -8.82839 -6.6025
1 7.172 -9.07699 -4.71482
1 5.33984 -10.2112 -7.08462
2 9.49909 -7.59278 -7.29975
2 7.66693 -8.72698 -9.66955
1 8.21148 -8.97557 -7.78187
1 6.37932 -10.1098 -10.1517
2 10.5386 -7.49137 -10.3668
1 9.25096 -8.87416 -10.8489
2 2.81558 -11.3626 10.8466
2 5.68722 -10.127 10.1494
2 3.85506 -11.2612 7.7796
1 4.3996 -11.5098 9.66729
2 6.72669 -10.0256 7.08235
2 4.89453 -11.1598 4.71255
1 5.43908 -11.4084 6.60024
2 7.76617 -9.92418 4.0153
2 5.93401 -11.0584 1.6455
1 6.47856 -11.307 3.53318
1 4.6464 -12.4412 1.16338
2 8.80565 -9.82277 0.94825
2 6.97349 -10.957 -1.42156
1 7.51804 -11.2056 0.466133
1 5.68588 -12.3398 -1.90367
2 9.84513 -9.72136 -2.1188
2 8.01297 -10.8556 -4.48861
1 8.55752 -11.1041 -2.60092
1 6.72535 -12.2383 -4.97072
2 10.8846 -9.61994 -5.18585
2 9.05244 -10.7541 -7.55566
1 9.59699 -11.0027 -5.66797
1 7.76483 -12.1369 -8.03777
2 11.9241 -9.51853 -8.2529
2 10.0919 -10.6527 -10.6227
1 10.6365 -10.9013 -8.73502
1 8.80431 -12.0355 -11.1048
1 11.6759 -10.7999 -11.8021
2 7.07273 -12.1542 12.2633
2 8.11221 -12.0528 9.19625
2 9.15169 -11.9513 6.1292
2 10.1912 -11.8499 3.06215
2 11.2306 -11.7485 -0.00490369
2 12.2701 -11.6471 -3.07195
2 -11.6015 6.45718 -12.2752
2 -12.295 4.22719 -4.02722
2 -11.2555 4.3286 -7.09427
2 -10.216 4.43001 -10.1613
1 -11.5036 3.04722 -10.6434
2 -11.949 2.09861 1.15373
2 -10.9095 2.20003 -1.91332
1 -12.1971 0.817233 -2.39544
2 -9.87 2.30144 -4.98037
2 -11.7022 1.16724 -7.35018
1 -11.1576 0.918645 -5.46249
2 -8.83052 2.40285 -8.04742
2 -10.6627 1.26865 -10.4172
1 -10.1181 1.02006 -8.52954
1 -11.9503 -0.114143 -10.8993
2 -7.79104 2.50426 -11.1145
1 -9.07866 1.12147 -11.5966
2 -11.6029 -0.0299606 6.33468
2 -10.5634 0.0714515 3.26763
2 -12.3956 -1.06275 0.897824
1 -11.8511 -1.31134 2.78551
2 -9.52396 0.172864 0.200578
2 -11.3561 -0.961336 -2.16923
1 -10.8116 -1.20993 -0.281539
2 -8.48449 0.274276 -2.86647
2 -10.3166 -0.859924 -5.23628
1 -9.7721 -1.10852 -3.34859
1 -11.6043 -2.24272 -5.71839
2 -7.44501 0.375688 -5.93352
2 -9.27717 -0.758512 -8.30333
1 -8.73262 -1.00711 -6.41564
1 -10.5648 -2.14131 -8.78545
2 -6.40553 0.4771 -9.00058
2 -8.23769 -0.6571 -11.3704
1 -7.69314 -0.905694 -9.48269
1 -9.5253 -2.03989 -11.8525
2 -5.36605 0.578512 -12.0676
2 -11.2569 -2.15854 11.5156
2 -10.2174 -2.05712 8.44858
2 -12.0496 -3.19132 6.07877
1 -11.505 -3.43992 7.96646
2 -9.17793 -1.95571 5.38153
2 -11.0101 -3.08991 3.01172
1 -10.4655 -3.33851 4.89941
1 -12.2977 -4.47271 2.5296
2 -8.13845 -1.8543 2.31448
2 -9.97061 -2.9885 -0.0553298
1 -9.42606 -3.23709 1.83236
1 -11.2582 -4.37129 -0.537446
2 -7.09897 -1.75289 -0.752576
2 -8.93113 -2.88709 -3.12238
1 -8.38658 -3.13568 -1.23469
1 -10.2187 -4.26988 -3.6045
2 -6.05949 -1.65148 -3.81963
2 -7.89166 -2.78568 -6.18943
1 -7.34711 -3.03427 -4.30174
1 -9.17927 -4.16847 -6.67155
2 -5.02002 -1.55006 -6.88668
2 -6.85218 -2.68426 -9.25648
1 -6.30763 -2.93286 -7.36879
1 -8.13979 -4.06706 -9.7386
2 -3.98054 -1.44865 -9.95373
2 -5.8127 -2.58285 -12.3235
1 -5.26815 -2.83144 -10.4358
2 -11.7035 -5.3199 11.2597
2 -8.83189 -4.08429 10.5625
2 -10.6641 -5.21849 8.19267
1 -10.1195 -5.46708 10.0804
1 -11.9517 -6.60128 7.71055
2 -7.79241 -3.98287 7.49542
2 -9.62458 -5.11707 5.12562