 # Voronoi polycrystal with 1 grains
 
        1851  atoms
           3  atom types
 
      -20.00000000      20.88537210  xlo xhi
      -20.00000000      20.94521700  ylo yhi
      -22.00000000      22.98568913  zlo zhi
 
Masses
 
           1   15.99900000    # O 
           2   65.38000000    # Zn
           3   118.71000000    # Sn
 
Atoms # atomic
 
         1    1  -2.0      6.25597257      11.93738249      11.07172345
         2    1  -2.0      7.29545036      12.03879462       8.00467250
         3    1  -2.0      8.33492815      12.14020674       4.93762156
         4    1  -2.0      9.37440594      12.24161887       1.87057061
         5    1  -2.0     10.41388373      12.34303099      -1.19648033
         6    1  -2.0     11.45336152      12.44444312      -4.26353128
         7    2   2.0      9.96857568      11.39442533      10.60068662
         8    1  -2.0     10.51312485      11.14583153      12.48837497
         9    1  -2.0      8.68096363      10.01163149      10.11857001
        10    2   2.0     11.00805347      11.49583745       7.53363567
        11    1  -2.0     11.55260264      11.24724365       9.42132402
        12    1  -2.0      9.72044142      10.11304362       7.05151907
        13    2   2.0     12.04753126      11.59724958       4.46658473
        14    1  -2.0     10.75991921      10.21445574       3.98446812
        15    1  -2.0     11.79939700      10.31586787       0.91741717
        16    1  -2.0     10.06647689       7.98446837      12.23246752
        17    2   2.0     12.39356673       9.46867433       9.64753318
        18    1  -2.0     11.10595468       8.08588050       9.16541657
        19    1  -2.0     12.14543247       8.18729262       6.09836563
        20    1  -2.0     12.49146795       6.05871737      11.27931408
        21    1  -2.0     -2.02764168      12.10143427      11.69238604
        22    1  -2.0     -0.98816389      12.20284639       8.62533510
        23    1  -2.0      0.05131390      12.30425852       5.55828415
        24    1  -2.0      1.09079169      12.40567064       2.49123321
        25    2   2.0      1.68496143      11.55847710      11.22134921
        26    1  -2.0      0.39734938      10.17568327      10.73923261
        27    2   2.0      2.72443922      11.65988923       8.15429827
        28    1  -2.0      3.26898839      11.41129543      10.04198662
        29    1  -2.0      1.43682717      10.27709539       7.67218166
        30    2   2.0      3.76391701      11.76130135       5.08724732
        31    1  -2.0      4.30846618      11.51270755       6.97493567
        32    1  -2.0      2.47630496      10.37850752       4.60513071
        33    2   2.0      4.80339480      11.86271348       2.02019637
        34    1  -2.0      5.34794397      11.61411968       3.90788473
        35    1  -2.0      3.51578275      10.47991964       1.53807977
        36    2   2.0      5.84287259      11.96412560      -1.04685457
        37    1  -2.0      6.38742176      11.71553180       0.84083378
        38    1  -2.0      4.55526054      10.58133177      -1.52897118
        39    2   2.0      6.88235038      12.06553773      -4.11390552
        40    1  -2.0      7.42689955      11.81694393      -2.22621717
        41    1  -2.0      5.59473833      10.68274389      -4.59602212
        42    2   2.0      7.92182818      12.16694985      -7.18095646
        43    1  -2.0      8.46637735      11.91835605      -5.29326811
        44    1  -2.0      6.63421612      10.78415602      -7.66307307
        45    2   2.0      8.96130597      12.26836198     -10.24800741
        46    1  -2.0      9.50585514      12.01976818      -8.36031906
        47    1  -2.0      7.67369392      10.88556814     -10.73012401
        48    1  -2.0     10.54533293      12.12118030     -11.42737000
        49    2   2.0      4.10995249       9.63272610      10.26819577
        50    1  -2.0      4.65450166       9.38413230      12.15588412
        51    1  -2.0      2.82234043       8.24993227       9.78607917
        52    2   2.0      6.98159150      10.86833826       9.57094978
        53    2   2.0      5.14943028       9.73413823       7.20114483
        54    1  -2.0      5.69397945       9.48554443       9.08883318
        55    1  -2.0      3.86181823       8.35134439       6.71902822
        56    2   2.0      8.02106929      10.96975039       6.50389884
        57    2   2.0      6.18890807       9.83555035       4.13409388
        58    1  -2.0      6.73345724       9.58695655       6.02178223
        59    1  -2.0      4.90129602       8.45275652       3.65197728
        60    2   2.0      9.06054708      11.07116251       3.43684789
        61    2   2.0      7.22838586       9.93696248       1.06704294
        62    1  -2.0      7.77293503       9.68836868       2.95473129
        63    1  -2.0      5.94077381       8.55416864       0.58492633
        64    2   2.0     10.10002487      11.17257464       0.36979695
        65    2   2.0      8.26786365      10.03837460      -2.00000801
        66    1  -2.0      8.81241282       9.78978080      -0.11231966
        67    1  -2.0      6.98025160       8.65558077      -2.48212461
        68    2   2.0     11.13950266      11.27398676      -2.69725400
        69    2   2.0      9.30734144      10.13978673      -5.06705895
        70    1  -2.0      9.85189061       9.89119293      -3.17937060
        71    1  -2.0      8.01972939       8.75699289      -5.54917556
        72    2   2.0     12.17898045      11.37539889      -5.76430494
        73    2   2.0     10.34681923      10.24119885      -8.13410990
        74    1  -2.0     10.89136840       9.99260505      -6.24642155
        75    1  -2.0      9.05920718       8.85840502      -8.61622651
        76    2   2.0     11.38629702      10.34261098     -11.20116085
        77    1  -2.0     11.93084619      10.09401718      -9.31347249
        78    1  -2.0     10.09868497       8.95981714     -11.68327745
        79    2   2.0      5.49546575       7.60556298      12.38209328
        80    1  -2.0      4.20785370       6.22276915      11.89997667
        81    2   2.0      8.36710476       8.84117514      11.68484729
        82    2   2.0      6.53494354       7.70697510       9.31504233
        83    1  -2.0      7.07949271       7.45838130      11.20273069
        84    1  -2.0      5.24733149       6.32418127       8.83292573
        85    2   2.0      9.40658255       8.94258726       8.61779635
        86    2   2.0      7.57442133       7.80838723       6.24799139
        87    1  -2.0      8.11897050       7.55979343       8.13567974
        88    1  -2.0      6.28680928       6.42559340       5.76587478
        89    2   2.0     10.44606034       9.04399939       5.55074540
        90    2   2.0      8.61389912       7.90979935       3.18094044
        91    1  -2.0      9.15844829       7.66120555       5.06862880
        92    1  -2.0      7.32628707       6.52700552       2.69882384
        93    2   2.0     11.48553814       9.14541151       2.48369446
        94    2   2.0      9.65337692       8.01121148       0.11388950
        95    1  -2.0     10.19792609       7.76261768       2.00157785
        96    1  -2.0      8.36576486       6.62841765      -0.36822711
        97    2   2.0     10.69285471       8.11262360      -2.95316145
        98    1  -2.0     11.23740388       7.86402980      -1.06547310
        99    1  -2.0      9.40524266       6.72982977      -3.43527805
       100    2   2.0     11.73233250       8.21403573      -6.02021239
       101    1  -2.0     12.27688167       7.96544193      -4.13252404
       102    1  -2.0     10.44472045       6.83124190      -6.50232900
       103    1  -2.0     11.48419824       6.93265402      -9.56937994
       104    2   2.0      7.92045681       5.67981198      11.42893984
       105    1  -2.0      6.63284476       4.29701815      10.94682324
       106    2   2.0     10.79209582       6.91542414      10.73169385
       107    2   2.0      8.95993460       5.78122411       8.36188890
       108    1  -2.0      9.50448377       5.53263031      10.24957725
       109    1  -2.0      7.67232255       4.39843027       7.87977229
       110    2   2.0     11.83157361       7.01683626       7.66464291
       111    2   2.0      9.99941239       5.88263623       5.29483795
       112    1  -2.0     10.54396156       5.63404243       7.18252630
       113    1  -2.0      8.71180034       4.49984240       4.81272135
       114    2   2.0     11.03889018       5.98404836       2.22778701
       115    1  -2.0     11.58343935       5.73545456       4.11547536
       116    1  -2.0      9.75127813       4.60125452       1.74567040
       117    2   2.0     12.07836797       6.08546048      -0.83926394
       118    1  -2.0     10.79075592       4.70266665      -1.32138055
       119    1  -2.0     11.83023371       4.80407877      -4.38843149
       120    2   2.0     10.34544786       3.75406098      10.47578640
       121    1  -2.0     10.88999703       3.50546718      12.36347476
       122    1  -2.0      9.05783581       2.37126715       9.99366980
       123    2   2.0     11.38492566       3.85547311       7.40873546
       124    1  -2.0     11.92947483       3.60687931       9.29642381
       125    1  -2.0     10.09731360       2.47267927       6.92661885
       126    2   2.0     12.42440345       3.95688523       4.34168451
       127    1  -2.0     11.13679140       2.57409140       3.85956791
       128    1  -2.0     12.17626919       2.67550352       0.79251696
       129    1  -2.0     10.44334908       0.34410403      12.10756731
       130    1  -2.0     11.48282687       0.44551615       9.04051636
       131    1  -2.0    -10.31125593      12.26548604      12.31304864
       132    1  -2.0     -9.27177813      12.36689816       9.24599769
       133    1  -2.0     -8.23230034      12.46831029       6.17894675
       134    2   2.0     -6.59865282      11.72252887      11.84201181
       135    1  -2.0     -7.88626487      10.33973504      11.35989520
       136    2   2.0     -5.55917503      11.82394100       8.77496086
       137    1  -2.0     -5.01462586      11.57534720      10.66264921
       138    1  -2.0     -6.84678708      10.44114717       8.29284426
       139    2   2.0     -4.51969724      11.92535313       5.70790992
       140    1  -2.0     -3.97514807      11.67675932       7.59559827
       141    1  -2.0     -5.80730929      10.54255929       5.22579331
       142    2   2.0     -3.48021945      12.02676525       2.64085897
       143    1  -2.0     -2.93567028      11.77817145       4.52854732
       144    1  -2.0     -4.76783150      10.64397142       2.15874236
       145    2   2.0     -2.44074165      12.12817738      -0.42619198
       146    1  -2.0     -1.89619248      11.87958358       1.46149638
       147    1  -2.0     -3.72835370      10.74538354      -0.90830858
       148    2   2.0     -1.40126386      12.22958950      -3.49324292
       149    1  -2.0     -0.85671469      11.98099570      -1.60555457
       150    1  -2.0     -2.68887591      10.84679567      -3.97535953
       151    2   2.0     -0.36178607      12.33100163      -6.56029387
       152    1  -2.0      0.18276310      12.08240783      -4.67260552
       153    1  -2.0     -1.64939812      10.94820779      -7.04241047
       154    2   2.0      0.67769172      12.43241375      -9.62734481
       155    1  -2.0      1.22224089      12.18381995      -7.73965646
       156    1  -2.0     -0.60992033      11.04961992     -10.10946142
       157    1  -2.0      2.26171868      12.28523208     -10.80670741
       158    2   2.0     -4.17366176       9.79677788      10.88885837
       159    1  -2.0     -5.46127381       8.41398404      10.40674176
       160    2   2.0     -1.30202275      11.03239004      10.19161238
       161    2   2.0     -3.13418397       9.89819000       7.82180742
       162    1  -2.0     -2.58963480       9.64959620       9.70949577
       163    1  -2.0     -4.42179602       8.51539617       7.33969082
       164    2   2.0     -0.26254496      11.13380216       7.12456143
       165    2   2.0     -2.09470618       9.99960213       4.75475648
       166    1  -2.0     -1.55015701       9.75100833       6.64244483
       167    1  -2.0     -3.38231823       8.61680829       4.27263987
       168    2   2.0      0.77693283      11.23521429       4.05751049
       169    2   2.0     -1.05522839      10.10101425       1.68770553
       170    1  -2.0     -0.51067922       9.85242045       3.57539388
       171    1  -2.0     -2.34284044       8.71822042       1.20558893
       172    2   2.0      1.81641062      11.33662641       0.99045954
       173    2   2.0     -0.01575060      10.20242638      -1.37934541
       174    1  -2.0      0.52879857       9.95383258       0.50834294
       175    1  -2.0     -1.30336265       8.81963254      -1.86146202
       176    2   2.0      2.85588841      11.43803854      -2.07659140
       177    2   2.0      1.02372719      10.30383850      -4.44639636
       178    1  -2.0      1.56827636      10.05524470      -2.55870801
       179    1  -2.0     -0.26388486       8.92104467      -4.92851297
       180    2   2.0      3.89536621      11.53945066      -5.14364235
       181    2   2.0      2.06320498      10.40525063      -7.51344731
       182    1  -2.0      2.60775415      10.15665683      -5.62575895
       183    1  -2.0      0.77559293       9.02245679      -7.99556391
       184    2   2.0      4.93484400      11.64086279      -8.21069329
       185    2   2.0      3.10268278      10.50666275     -10.58049825
       186    1  -2.0      3.64723195      10.25806895      -8.69280990
       187    1  -2.0      1.81507073       9.12386892     -11.06261486
       188    2   2.0      5.97432179      11.74227491     -11.27774424
       189    1  -2.0      4.68670974      10.35948108     -11.75986084
       190    2   2.0      0.08349052       9.00522691      12.30550989
       191    2   2.0     -1.74867071       7.87102688       9.93570493
       192    1  -2.0     -1.20412154       7.62243308      11.82339328
       193    1  -2.0     -3.03628276       6.48823304       9.45358832
       194    2   2.0      1.12296831       9.10663904       9.23845894
       195    2   2.0     -0.70919291       7.97243900       6.86865398
       196    1  -2.0     -0.16464374       7.72384520       8.75634234
       197    1  -2.0     -1.99680496       6.58964517       6.38653738
       198    2   2.0      2.16244610       9.20805116       6.17140800
       199    2   2.0      0.33028488       8.07385113       3.80160304
       200    1  -2.0      0.87483405       7.82525733       5.68929139
       201    1  -2.0     -0.95732717       6.69105729       3.31948643
       202    2   2.0      3.20192389       9.30946329       3.10435705
       203    2   2.0      1.36976267       8.17526325       0.73455209
       204    1  -2.0      1.91431184       7.92666945       2.62224044
       205    1  -2.0      0.08215062       6.79246942       0.25243549
       206    2   2.0      4.24140168       9.41087541       0.03730610
       207    2   2.0      2.40924046       8.27667538      -2.33249885
       208    1  -2.0      2.95378963       8.02808158      -0.44481050
       209    1  -2.0      1.12162841       6.89388154      -2.81461546
       210    2   2.0      5.28087947       9.51228754      -3.02974484
       211    2   2.0      3.44871825       8.37808750      -5.39954980
       212    1  -2.0      3.99326742       8.12949370      -3.51186145
       213    1  -2.0      2.16110620       6.99529367      -5.88166640
       214    2   2.0      6.32035726       9.61369966      -6.09679579
       215    2   2.0      4.48819604       8.47949963      -8.46660074
       216    1  -2.0      5.03274521       8.23090583      -6.57891239
       217    1  -2.0      3.20058399       7.09670579      -8.94871735
       218    2   2.0      7.35983505       9.71511179      -9.16384673
       219    2   2.0      5.52767383       8.58091175     -11.53365169
       220    1  -2.0      6.07222300       8.33231795      -9.64596334
       221    1  -2.0      4.24006178       7.19811792     -12.01576829
       222    2   2.0      8.39931284       9.81652391     -12.23089768
       223    2   2.0     -0.36315744       5.84386375      12.04960244
       224    1  -2.0     -1.65076949       4.46106992      11.56748583
       225    2   2.0      2.50848157       7.07947591      11.35235645
       226    2   2.0      0.67632035       5.94527588       8.98255149
       227    1  -2.0      1.22086952       5.69668208      10.87023984
       228    1  -2.0     -0.61129170       4.56248205       8.50043489
       229    2   2.0      3.54795936       7.18088804       8.28530550
       230    2   2.0      1.71579814       6.04668800       5.91550055
       231    1  -2.0      2.26034731       5.79809420       7.80318890
       232    1  -2.0      0.42818609       4.66389417       5.43338394
       233    2   2.0      4.58743715       7.28230016       5.21825456
       234    2   2.0      2.75527593       6.14810013       2.84844960
       235    1  -2.0      3.29982510       5.89950633       4.73613795
       236    1  -2.0      1.46766388       4.76530630       2.36633299
       237    2   2.0      5.62691495       7.38371229       2.15120361
       238    2   2.0      3.79475372       6.24951225      -0.21860135
       239    1  -2.0      4.33930289       6.00091845       1.66908701
       240    1  -2.0      2.50714167       4.86671842      -0.70071795
       241    2   2.0      6.66639274       7.48512441      -0.91584733
       242    2   2.0      4.83423152       6.35092438      -3.28565229
       243    1  -2.0      5.37878069       6.10233058      -1.39796394
       244    1  -2.0      3.54661947       4.96813055      -3.76776890
       245    2   2.0      7.70587053       7.58653654      -3.98289828
       246    2   2.0      5.87370931       6.45233650      -6.35270324
       247    1  -2.0      6.41825848       6.20374270      -4.46501488
       248    1  -2.0      4.58609726       5.06954267      -6.83481984
       249    2   2.0      8.74534832       7.68794866      -7.04994922
       250    2   2.0      6.91318710       6.55374863      -9.41975418
       251    1  -2.0      7.45773627       6.30515483      -7.53206583
       252    1  -2.0      5.62557505       5.17095480      -9.90187079
       253    2   2.0      9.78482611       7.78936079     -10.11700017
       254    2   2.0      7.95266489       6.65516076     -12.48680513
       255    1  -2.0      8.49721406       6.40656695     -10.59911678
       256    2   2.0      2.06183362       3.91811276      11.09644900
       257    1  -2.0      0.77422157       2.53531892      10.61433239
       258    2   2.0      4.93347263       5.15372491      10.39920301
       259    2   2.0      3.10131141       4.01952488       8.02939805
       260    1  -2.0      3.64586058       3.77093108       9.91708640
       261    1  -2.0      1.81369936       2.63673105       7.54728145
       262    2   2.0      5.97295042       5.25513704       7.33215206
       263    2   2.0      4.14078920       4.12093701       4.96234711
       264    1  -2.0      4.68533837       3.87234321       6.85003546
       265    1  -2.0      2.85317715       2.73814317       4.48023050
       266    2   2.0      7.01242821       5.35654916       4.26510112
       267    2   2.0      5.18026699       4.22234913       1.89529616
       268    1  -2.0      5.72481616       3.97375533       3.78298451
       269    1  -2.0      3.89265494       2.83955530       1.41317956
       270    2   2.0      8.05190600       5.45796129       1.19805017
       271    2   2.0      6.21974478       4.32376126      -1.17175478
       272    1  -2.0      6.76429395       4.07516746       0.71593357
       273    1  -2.0      4.93213273       2.94096742      -1.65387139
       274    2   2.0      9.09138379       5.55937341      -1.86900077
       275    2   2.0      7.25922257       4.42517338      -4.23880573
       276    1  -2.0      7.80377174       4.17657958      -2.35111738
       277    1  -2.0      5.97161052       3.04237955      -4.72092233
       278    2   2.0     10.13086158       5.66078554      -4.93605172
       279    2   2.0      8.29870036       4.52658551      -7.30585667
       280    1  -2.0      8.84324953       4.27799171      -5.41816832
       281    1  -2.0      7.01108831       3.14379167      -7.78797328
       282    2   2.0     11.17033937       5.76219767      -8.00310266
       283    2   2.0      9.33817815       4.62799763     -10.37290762
       284    1  -2.0      9.88272732       4.37940383      -8.48521927
       285    1  -2.0      8.05056610       3.24520380     -10.85502423
       286    2   2.0     12.20981717       5.86360979     -11.07015361
       287    1  -2.0     10.92220512       4.48081596     -11.55227021
       288    2   2.0      4.48682467       1.99236176      10.14329556
       289    1  -2.0      5.03137384       1.74376796      12.03098391
       290    1  -2.0      3.19921262       0.60956792       9.66117895
       291    2   2.0      7.35846369       3.22797392       9.44604957
       292    2   2.0      5.52630246       2.09377388       7.07624461
       293    1  -2.0      6.07085163       1.84518008       8.96393297
       294    1  -2.0      4.23869041       0.71098005       6.59412801
       295    2   2.0      8.39794148       3.32938604       6.37899863
       296    2   2.0      6.56578026       2.19518601       4.00919367
       297    1  -2.0      7.11032943       1.94659221       5.89688202
       298    1  -2.0      5.27816821       0.81239217       3.52707706
       299    2   2.0      9.43741927       3.43079817       3.31194768
       300    2   2.0      7.60525805       2.29659813       0.94214272
       301    1  -2.0      8.14980722       2.04800433       2.82983108
       302    1  -2.0      6.31764600       0.91380430       0.46002612
       303    2   2.0     10.47689706       3.53221029       0.24489674
       304    2   2.0      8.64473584       2.39801026      -2.12490822
       305    1  -2.0      9.18928501       2.14941646      -0.23721987
       306    1  -2.0      7.35712379       1.01521642      -2.60702483
       307    2   2.0     11.51637485       3.63362242      -2.82215421
       308    2   2.0      9.68421363       2.49942238      -5.19195917
       309    1  -2.0     10.22876280       2.25082858      -3.30427082
       310    1  -2.0      8.39660158       1.11662855      -5.67407577
       311    2   2.0     10.72369142       2.60083451      -8.25901011
       312    1  -2.0     11.26824059       2.35224071      -6.37132176
       313    1  -2.0      9.43607937       1.21804067      -8.74112672
       314    2   2.0     11.76316921       2.70224663     -11.32606106
       315    1  -2.0     12.30771838       2.45365283      -9.43837271
       316    1  -2.0     10.47555716       1.31945280     -11.80817766
       317    2   2.0      5.87233794      -0.03480137      12.25719307
       318    1  -2.0      4.58472589      -1.41759520      11.77507646
       319    2   2.0      8.74397695       1.20081079      11.55994708
       320    2   2.0      6.91181573       0.06661076       9.19014212
       321    1  -2.0      7.45636490      -0.18198304      11.07783047
       322    1  -2.0      5.62420368      -1.31618307       8.70802552
       323    2   2.0      9.78345474       1.30222292       8.49289613
       324    2   2.0      7.95129352       0.16802288       6.12309118
       325    1  -2.0      8.49584269      -0.08057092       8.01077953
       326    1  -2.0      6.66368147      -1.21477095       5.64097457
       327    2   2.0     10.82293253       1.40363504       5.42584519
       328    2   2.0      8.99077131       0.26943501       3.05604023
       329    1  -2.0      9.53532048       0.02084121       4.94372858
       330    1  -2.0      7.70315926      -1.11335882       2.57392363
       331    2   2.0     11.86241032       1.50504717       2.35879424
       332    2   2.0     10.03024910       0.37084713      -0.01101071
       333    1  -2.0     10.57479827       0.12225333       1.87667764
       334    1  -2.0      8.74263705      -1.01194670      -0.49312732
       335    2   2.0     11.06972689       0.47225926      -3.07806166
       336    1  -2.0     11.61427606       0.22366546      -1.19037331
       337    1  -2.0      9.78211484      -0.91053457      -3.56017827
       338    2   2.0     12.10920469       0.57367138      -6.14511261
       339    1  -2.0     10.82159264      -0.80912245      -6.62722921
       340    1  -2.0     11.86107043      -0.70771032      -9.69428016
       341    2   2.0      8.29732900      -1.96055236      11.30403963
       342    1  -2.0      7.00971695      -3.34334620      10.82192302
       343    2   2.0     11.16896801      -0.72494021      10.60679364
       344    2   2.0      9.33680679      -1.85914024       8.23698868
       345    1  -2.0      9.88135596      -2.10773404      10.12467704
       346    1  -2.0      8.04919474      -3.24193407       7.75487208
       347    2   2.0     12.20844580      -0.62352808       7.53974270
       348    2   2.0     10.37628458      -1.75772811       5.16993774
       349    1  -2.0     10.92083375      -2.00632191       7.05762609
       350    1  -2.0      9.08867253      -3.14052195       4.68782113
       351    2   2.0     11.41576237      -1.65631599       2.10288679
       352    1  -2.0     11.96031154      -1.90490979       3.99057514
       353    1  -2.0     10.12815032      -3.03910982       1.62077019
       354    2   2.0     12.45524016      -1.55490386      -0.96416415
       355    1  -2.0     11.16762811      -2.93769770      -1.44628076
       356    1  -2.0     12.20710590      -2.83628557      -4.51333170
       357    2   2.0     10.72232005      -3.88630336      10.35088619
       358    1  -2.0     11.26686922      -4.13489716      12.23857454
       359    1  -2.0      9.43470800      -5.26909720       9.86876959
       360    2   2.0     11.76179784      -3.78489124       7.28383525
       361    1  -2.0     12.30634701      -4.03348504       9.17152360
       362    1  -2.0     10.47418579      -5.16768507       6.80171864
       363    1  -2.0     11.51366358      -5.06627295       3.73466769
       364    2   2.0     12.10783332      -5.91346649      12.46478370
       365    1  -2.0     10.82022127      -7.29626032      11.98266709
       366    1  -2.0     11.85969906      -7.19484820       8.91561615
       367    1  -2.0    -12.25876231      11.84081110       8.21626086
       368    2   2.0    -11.76383369      12.19081702       3.26152156
       369    1  -2.0    -11.21928452      11.94222322       5.14920992
       370    2   2.0    -10.72435590      12.29222915       0.19447062
       371    1  -2.0    -10.17980673      12.04363535       2.08215897
       372    1  -2.0    -12.01196795      10.90943532      -0.28764599
       373    2   2.0     -9.68487811      12.39364127      -2.87258033
       374    1  -2.0     -9.14032894      12.14504747      -0.98489197
       375    1  -2.0    -10.97249016      11.01084744      -3.35469693
       376    2   2.0     -8.64540032      12.49505340      -5.93963127
       377    1  -2.0     -8.10085115      12.24645960      -4.05194292
       378    1  -2.0     -9.93301237      11.11225957      -6.42174788
       379    1  -2.0     -7.06137336      12.34787172      -7.11899387
       380    1  -2.0     -8.89353458      11.21367169      -9.48879882
       381    1  -2.0     -6.02189557      12.44928385     -10.18604481
       382    2   2.0    -12.45727601       9.96082965      11.50952096
       383    2   2.0     -9.58563700      11.19644181      10.81227497
       384    2   2.0    -11.41779822      10.06224178       8.44247002
       385    1  -2.0    -10.87324905       9.81364797      10.33015837
       386    2   2.0     -8.54615921      11.29785393       7.74522403
       387    2   2.0    -10.37832043      10.16365390       5.37541907
       388    1  -2.0     -9.83377126       9.91506010       7.26310742
       389    1  -2.0    -11.66593248       8.78086007       4.89330247
       390    2   2.0     -7.50668142      11.39926606       4.67817308
       391    2   2.0     -9.33884264      10.26506603       2.30836813
       392    1  -2.0     -8.79429347      10.01647223       4.19605648
       393    1  -2.0    -10.62645469       8.88227219       1.82625152
       394    2   2.0     -6.46720362      11.50067818       1.61112214
       395    2   2.0     -8.29936485      10.36647815      -0.75868282
       396    1  -2.0     -7.75481567      10.11788435       1.12900553
       397    1  -2.0     -9.58697690       8.98368432      -1.24079942
       398    2   2.0     -5.42772583      11.60209031      -1.45592881
       399    2   2.0     -7.25988705      10.46789028      -3.82573376
       400    1  -2.0     -6.71533788      10.21929648      -1.93804541
       401    1  -2.0     -8.54749910       9.08509644      -4.30785037
       402    2   2.0     -4.38824804      11.70350243      -4.52297975
       403    2   2.0     -6.22040926      10.56930240      -6.89278471
       404    1  -2.0     -5.67586009      10.32070860      -5.00509636
       405    1  -2.0     -7.50802131       9.18650857      -7.37490132
       406    2   2.0     -3.34877025      11.80491456      -7.59003070
       407    2   2.0     -5.18093147      10.67071453      -9.95983566
       408    1  -2.0     -4.63638230      10.42212073      -8.07214730
       409    1  -2.0     -6.46854352       9.28792069     -10.44195226
       410    2   2.0     -2.30929246      11.90632668     -10.65708164
       411    1  -2.0     -3.59690451      10.52353285     -11.13919825